# Solver information
# Time        	U_solver      	Ux_initial    	Ux_final      	Ux_iters      	Uy_initial    	Uy_final      	Uy_iters      	U_converged   	p_solver      	p_initial     	p_final       	p_iters       	p_converged   
1             	smoothSolver	1.000000e+00	6.482810e-02	4	1.000000e+00	9.673810e-02	4	false	GAMG	1.000000e+00	9.909630e-02	4	true
2             	smoothSolver	7.591260e-03	3.943040e-04	2	1.032020e-01	6.870250e-03	2	false	GAMG	5.596530e-01	5.103930e-02	6	true
3             	smoothSolver	8.704830e-03	5.893030e-04	2	8.521930e-02	6.302060e-03	2	false	GAMG	3.540630e-02	2.272610e-03	2	true
4             	smoothSolver	7.107710e-03	4.774470e-04	2	8.085760e-02	5.700710e-03	2	false	GAMG	3.910610e-02	3.090700e-03	2	true
5             	smoothSolver	5.753790e-03	3.893320e-04	2	7.931220e-02	5.177240e-03	2	false	GAMG	7.912560e-02	7.027970e-03	2	true
6             	smoothSolver	5.404130e-03	3.718990e-04	2	7.423610e-02	4.857680e-03	2	false	GAMG	8.146580e-02	7.007390e-03	3	true
7             	smoothSolver	5.075400e-03	3.633330e-04	2	6.914760e-02	4.565130e-03	2	false	GAMG	3.457210e-02	3.086920e-03	3	true
8             	smoothSolver	3.990720e-03	2.913560e-04	2	5.881650e-02	3.921710e-03	2	false	GAMG	1.833960e-02	1.522300e-03	3	true
9             	smoothSolver	5.993050e-03	4.425050e-04	2	6.590950e-02	4.407380e-03	2	false	GAMG	1.581930e-02	1.231670e-03	3	true
10            	smoothSolver	5.994240e-03	4.428940e-04	2	6.232030e-02	4.205940e-03	2	false	GAMG	1.369450e-02	1.242230e-03	3	true
11            	smoothSolver	6.073660e-03	4.489240e-04	2	5.971700e-02	4.078180e-03	2	false	GAMG	1.036940e-02	1.028080e-03	3	true
12            	smoothSolver	6.649180e-03	4.932280e-04	2	5.905310e-02	4.077460e-03	2	false	GAMG	9.036960e-03	8.900810e-04	3	true
13            	smoothSolver	6.625040e-03	4.919560e-04	2	5.673270e-02	3.954940e-03	2	false	GAMG	8.376200e-03	8.025090e-04	3	true
14            	smoothSolver	6.521860e-03	4.839690e-04	2	5.446430e-02	3.823110e-03	2	false	GAMG	7.526490e-03	7.236930e-04	3	true
15            	smoothSolver	6.964090e-03	5.174890e-04	2	5.357400e-02	3.792170e-03	2	false	GAMG	7.011200e-03	6.699070e-04	3	true
16            	smoothSolver	6.791420e-03	5.037290e-04	2	5.161750e-02	3.673740e-03	2	false	GAMG	6.380190e-03	5.811800e-04	3	true
17            	smoothSolver	7.460680e-03	5.542760e-04	2	5.156020e-02	3.689190e-03	2	false	GAMG	6.179780e-03	5.042070e-04	3	true
18            	smoothSolver	7.563240e-03	5.620460e-04	2	5.055960e-02	3.629930e-03	2	false	GAMG	6.354230e-03	6.082080e-04	2	true
19            	smoothSolver	7.894600e-03	5.873950e-04	2	5.018070e-02	3.607190e-03	2	false	GAMG	6.967780e-03	5.739700e-04	3	true
20            	smoothSolver	8.113970e-03	6.028600e-04	2	4.963190e-02	3.583260e-03	2	false	GAMG	9.262170e-03	7.269150e-04	2	true
21            	smoothSolver	8.404910e-03	6.255270e-04	2	4.930720e-02	3.556940e-03	2	false	GAMG	1.207200e-02	7.752900e-04	3	true
22            	smoothSolver	9.145590e-03	6.803670e-04	2	4.959310e-02	3.579140e-03	2	false	GAMG	1.442440e-02	1.073090e-03	2	true
23            	smoothSolver	9.041630e-03	6.733680e-04	2	4.904650e-02	3.532360e-03	2	false	GAMG	1.700380e-02	9.959690e-04	3	true
24            	smoothSolver	9.649260e-03	7.178110e-04	2	4.914610e-02	3.538520e-03	2	false	GAMG	1.947340e-02	1.187430e-03	2	true
25            	smoothSolver	9.869710e-03	7.354280e-04	2	4.888200e-02	3.512420e-03	2	false	GAMG	2.182850e-02	1.877370e-03	2	true
26            	smoothSolver	1.005850e-02	7.495260e-04	2	4.867430e-02	3.491740e-03	2	false	GAMG	2.435690e-02	2.043040e-03	2	true
27            	smoothSolver	1.022950e-02	7.624600e-04	2	4.844480e-02	3.467570e-03	2	false	GAMG	2.665110e-02	1.876680e-03	2	true
28            	smoothSolver	1.036720e-02	7.717550e-04	2	4.807690e-02	3.434720e-03	2	false	GAMG	2.896160e-02	2.154360e-03	2	true
29            	smoothSolver	1.046080e-02	7.798680e-04	2	4.785570e-02	3.411470e-03	2	false	GAMG	3.395320e-02	2.912090e-03	2	true
30            	smoothSolver	1.049610e-02	7.835250e-04	2	4.768170e-02	3.388130e-03	2	false	GAMG	3.595820e-02	1.920090e-03	3	true
31            	smoothSolver	1.045680e-02	7.809580e-04	2	4.761430e-02	3.376210e-03	2	false	GAMG	5.485770e-02	2.473520e-03	2	true
32            	smoothSolver	1.039760e-02	7.780160e-04	2	4.753980e-02	3.357920e-03	2	false	GAMG	5.313810e-02	3.444220e-03	2	true
33            	smoothSolver	1.025870e-02	7.696470e-04	2	4.756610e-02	3.365970e-03	2	false	GAMG	5.612180e-02	4.423300e-03	2	true
34            	smoothSolver	1.007030e-02	7.593110e-04	2	4.777410e-02	3.373480e-03	2	false	GAMG	6.032380e-02	3.019830e-03	3	true
35            	smoothSolver	9.798430e-03	7.405800e-04	2	4.786530e-02	3.385520e-03	2	false	GAMG	1.057220e-01	5.206710e-03	2	true
36            	smoothSolver	9.529550e-03	7.228220e-04	2	4.797030e-02	3.402000e-03	2	false	GAMG	1.035140e-01	7.095630e-03	2	true
37            	smoothSolver	9.219330e-03	6.996100e-04	2	4.804450e-02	3.421030e-03	2	false	GAMG	1.227170e-01	5.403730e-03	3	true
38            	smoothSolver	6.946510e-03	5.233560e-04	2	4.718460e-02	3.362480e-03	2	false	GAMG	8.968510e-02	3.920840e-03	2	true
39            	smoothSolver	8.582740e-03	6.459590e-04	2	4.791770e-02	3.437390e-03	2	false	GAMG	8.406270e-02	5.331940e-03	2	true
40            	smoothSolver	8.239500e-03	6.154380e-04	2	4.795560e-02	3.447180e-03	2	false	GAMG	6.951600e-02	5.995920e-03	2	true
41            	smoothSolver	7.853970e-03	5.818070e-04	2	4.782480e-02	3.458610e-03	2	false	GAMG	4.566330e-02	2.677280e-03	2	true
42            	smoothSolver	5.947310e-03	4.333670e-04	2	4.674470e-02	3.402000e-03	2	false	GAMG	3.986640e-02	2.541640e-03	2	true
43            	smoothSolver	7.413170e-03	5.400040e-04	2	4.768670e-02	3.483690e-03	2	false	GAMG	4.168890e-02	2.852470e-03	2	true
44            	smoothSolver	7.182360e-03	5.223040e-04	2	4.766290e-02	3.491710e-03	2	false	GAMG	3.987030e-02	2.718910e-03	2	true
45            	smoothSolver	6.993140e-03	5.082260e-04	2	4.765830e-02	3.513850e-03	2	false	GAMG	3.663370e-02	2.415220e-03	2	true
46            	smoothSolver	6.792550e-03	4.955060e-04	2	4.764340e-02	3.529110e-03	2	false	GAMG	3.699100e-02	2.206430e-03	2	true
47            	smoothSolver	6.704660e-03	4.915070e-04	2	4.762000e-02	3.545600e-03	2	false	GAMG	3.449980e-02	2.192730e-03	2	true
48            	smoothSolver	6.610880e-03	4.888280e-04	2	4.761190e-02	3.553590e-03	2	false	GAMG	3.304490e-02	2.235360e-03	2	true
49            	smoothSolver	5.544380e-03	4.109820e-04	2	4.671370e-02	3.484420e-03	2	false	GAMG	3.389620e-02	2.312330e-03	2	true
50            	smoothSolver	6.512450e-03	4.874570e-04	2	4.738260e-02	3.526070e-03	2	false	GAMG	3.573520e-02	2.427040e-03	2	true
51            	smoothSolver	6.495310e-03	4.899360e-04	2	4.723720e-02	3.503540e-03	2	false	GAMG	3.556410e-02	2.832590e-03	2	true
52            	smoothSolver	6.501640e-03	4.933010e-04	2	4.707480e-02	3.463460e-03	2	false	GAMG	3.881240e-02	3.029370e-03	2	true
53            	smoothSolver	6.477830e-03	4.949660e-04	2	4.681530e-02	3.417390e-03	2	false	GAMG	4.121920e-02	3.043050e-03	2	true
54            	smoothSolver	6.530610e-03	5.016710e-04	2	4.660880e-02	3.384570e-03	2	false	GAMG	4.460930e-02	3.073550e-03	2	true
55            	smoothSolver	6.580860e-03	5.064630e-04	2	4.633780e-02	3.339940e-03	2	false	GAMG	4.977770e-02	3.508790e-03	2	true
56            	smoothSolver	6.565470e-03	5.057110e-04	2	4.622860e-02	3.322330e-03	2	false	GAMG	5.669000e-02	3.767440e-03	2	true
57            	smoothSolver	5.053070e-03	3.863810e-04	2	4.455600e-02	3.189040e-03	2	false	GAMG	5.631880e-02	4.267940e-03	2	true
58            	smoothSolver	6.700620e-03	5.162550e-04	2	4.614250e-02	3.295510e-03	2	false	GAMG	6.419690e-02	4.657780e-03	2	true
59            	smoothSolver	6.229660e-03	4.794210e-04	2	4.565940e-02	3.242690e-03	2	false	GAMG	6.667770e-02	4.903380e-03	2	true
60            	smoothSolver	6.742210e-03	5.202660e-04	2	4.608210e-02	3.268570e-03	2	false	GAMG	6.860210e-02	4.974820e-03	2	true
61            	smoothSolver	6.776290e-03	5.235180e-04	2	4.588700e-02	3.243630e-03	2	false	GAMG	7.094170e-02	4.655120e-03	2	true
62            	smoothSolver	6.750090e-03	5.225110e-04	2	4.573090e-02	3.235030e-03	2	false	GAMG	7.261580e-02	5.080420e-03	2	true
63            	smoothSolver	6.784510e-03	5.260030e-04	2	4.552840e-02	3.211230e-03	2	false	GAMG	8.924420e-02	5.682860e-03	2	true
64            	smoothSolver	6.766780e-03	5.250270e-04	2	4.546610e-02	3.207400e-03	2	false	GAMG	1.070850e-01	6.897120e-03	2	true
65            	smoothSolver	6.770360e-03	5.259310e-04	2	4.543090e-02	3.202080e-03	2	false	GAMG	1.202180e-01	7.741610e-03	2	true
66            	smoothSolver	6.318810e-03	4.914840e-04	2	4.523730e-02	3.191520e-03	2	false	GAMG	1.311210e-01	8.684440e-03	2	true
67            	smoothSolver	6.607730e-03	5.153550e-04	2	4.548020e-02	3.211630e-03	2	false	GAMG	1.440830e-01	8.497810e-03	2	true
68            	smoothSolver	6.719040e-03	5.239320e-04	2	4.550780e-02	3.219970e-03	2	false	GAMG	1.509080e-01	8.211950e-03	2	true
69            	smoothSolver	6.771930e-03	5.272770e-04	2	4.541010e-02	3.209210e-03	2	false	GAMG	1.539800e-01	8.405620e-03	2	true
70            	smoothSolver	6.741250e-03	5.239110e-04	2	4.527070e-02	3.191390e-03	2	false	GAMG	1.539960e-01	8.157960e-03	2	true
71            	smoothSolver	6.718320e-03	5.216680e-04	2	4.514090e-02	3.181390e-03	2	false	GAMG	1.410760e-01	7.693900e-03	2	true
72            	smoothSolver	6.657650e-03	5.165730e-04	2	4.505360e-02	3.169710e-03	2	false	GAMG	1.190780e-01	7.865620e-03	2	true
73            	smoothSolver	6.642610e-03	5.145310e-04	2	4.503550e-02	3.170380e-03	2	false	GAMG	8.024220e-02	4.096860e-03	2	true
74            	smoothSolver	6.535220e-03	5.060510e-04	2	4.499900e-02	3.161450e-03	2	false	GAMG	7.335800e-02	3.696770e-03	2	true
75            	smoothSolver	6.519550e-03	5.039560e-04	2	4.499320e-02	3.158320e-03	2	false	GAMG	5.989450e-02	3.449910e-03	2	true
76            	smoothSolver	6.455700e-03	4.972610e-04	2	4.498180e-02	3.146810e-03	2	false	GAMG	5.226460e-02	2.722940e-03	2	true
77            	smoothSolver	6.417150e-03	4.934920e-04	2	4.498260e-02	3.141860e-03	2	false	GAMG	4.152250e-02	2.230300e-03	2	true
78            	smoothSolver	6.346690e-03	4.862340e-04	2	4.488410e-02	3.122680e-03	2	false	GAMG	3.838620e-02	1.950940e-03	2	true
79            	smoothSolver	6.311060e-03	4.817200e-04	2	4.485400e-02	3.120610e-03	2	false	GAMG	3.853770e-02	1.813460e-03	2	true
80            	smoothSolver	6.266630e-03	4.756500e-04	2	4.473720e-02	3.097370e-03	2	false	GAMG	3.631510e-02	1.855490e-03	2	true
81            	smoothSolver	6.222970e-03	4.703970e-04	2	4.470890e-02	3.096070e-03	2	false	GAMG	3.174820e-02	1.741260e-03	2	true
82            	smoothSolver	4.840470e-03	3.621630e-04	2	4.350850e-02	2.992430e-03	2	false	GAMG	3.006380e-02	1.659220e-03	2	true
83            	smoothSolver	6.157460e-03	4.604970e-04	2	4.463830e-02	3.059830e-03	2	false	GAMG	2.817420e-02	1.544690e-03	2	true
84            	smoothSolver	6.112830e-03	4.564200e-04	2	4.459710e-02	3.054330e-03	2	false	GAMG	2.921330e-02	1.491920e-03	2	true
85            	smoothSolver	6.093820e-03	4.531940e-04	2	4.461760e-02	3.045450e-03	2	false	GAMG	2.896610e-02	1.497980e-03	2	true
86            	smoothSolver	6.069200e-03	4.493920e-04	2	4.457320e-02	3.038570e-03	2	false	GAMG	2.808680e-02	1.494490e-03	2	true
87            	smoothSolver	6.047570e-03	4.461060e-04	2	4.466340e-02	3.024630e-03	2	false	GAMG	2.784380e-02	1.583190e-03	2	true
88            	smoothSolver	6.036930e-03	4.435740e-04	2	4.467100e-02	3.030840e-03	2	false	GAMG	2.892960e-02	1.640950e-03	2	true
89            	smoothSolver	6.040090e-03	4.420370e-04	2	4.472510e-02	3.017330e-03	2	false	GAMG	2.852700e-02	1.748970e-03	2	true
90            	smoothSolver	6.051710e-03	4.419250e-04	2	4.478460e-02	3.040560e-03	2	false	GAMG	3.068460e-02	1.773770e-03	2	true
91            	smoothSolver	6.070010e-03	4.418490e-04	2	4.479720e-02	3.029350e-03	2	false	GAMG	2.917310e-02	1.989920e-03	2	true
92            	smoothSolver	5.825150e-03	4.219010e-04	2	4.456160e-02	3.011350e-03	2	false	GAMG	2.700120e-02	2.007110e-03	2	true
93            	smoothSolver	5.030230e-03	3.621600e-04	2	4.365440e-02	2.923890e-03	2	false	GAMG	2.665190e-02	2.183630e-03	2	true
94            	smoothSolver	6.239340e-03	4.497830e-04	2	4.431610e-02	2.957720e-03	2	false	GAMG	2.586640e-02	2.092520e-03	2	true
95            	smoothSolver	6.025590e-03	4.335130e-04	2	4.354050e-02	2.879620e-03	2	false	GAMG	2.699400e-02	2.256210e-03	2	true
96            	smoothSolver	6.427660e-03	4.609490e-04	2	4.316110e-02	2.817180e-03	2	false	GAMG	2.617280e-02	2.265270e-03	2	true
97            	smoothSolver	6.523960e-03	4.672640e-04	2	4.238800e-02	2.738730e-03	2	false	GAMG	2.665080e-02	2.506370e-03	2	true
98            	smoothSolver	5.179820e-03	3.703220e-04	2	4.049550e-02	2.591790e-03	2	false	GAMG	2.713260e-02	2.375150e-03	2	true
99            	smoothSolver	6.670000e-03	4.801030e-04	2	4.104710e-02	2.600540e-03	2	false	GAMG	2.964010e-02	2.502310e-03	2	true
100           	smoothSolver	6.756730e-03	4.859100e-04	2	4.041600e-02	2.549250e-03	2	false	GAMG	2.952020e-02	2.446230e-03	2	true
101           	smoothSolver	6.807610e-03	4.872280e-04	2	3.989150e-02	2.489960e-03	2	false	GAMG	2.982600e-02	2.637450e-03	2	true
102           	smoothSolver	6.852400e-03	4.894120e-04	2	3.941920e-02	2.458800e-03	2	false	GAMG	3.098510e-02	2.515420e-03	2	true
103           	smoothSolver	6.882300e-03	4.896590e-04	2	3.904660e-02	2.430770e-03	2	false	GAMG	3.281950e-02	2.640410e-03	2	true
104           	smoothSolver	6.932020e-03	4.912590e-04	2	3.870710e-02	2.409990e-03	2	false	GAMG	3.894380e-02	2.571650e-03	2	true
105           	smoothSolver	6.987990e-03	4.936530e-04	2	3.855120e-02	2.392220e-03	2	false	GAMG	3.742160e-02	2.467990e-03	2	true
106           	smoothSolver	7.023360e-03	4.931060e-04	2	3.850230e-02	2.385800e-03	2	false	GAMG	3.716100e-02	2.507990e-03	2	true
107           	smoothSolver	7.091650e-03	4.981030e-04	2	3.847150e-02	2.372770e-03	2	false	GAMG	4.043250e-02	2.684370e-03	2	true
108           	smoothSolver	7.149600e-03	4.999640e-04	2	3.858240e-02	2.380380e-03	2	false	GAMG	3.725910e-02	2.975080e-03	2	true
109           	smoothSolver	7.215650e-03	5.052410e-04	2	3.860360e-02	2.375980e-03	2	false	GAMG	4.191270e-02	2.745510e-03	2	true
110           	smoothSolver	5.145750e-03	3.549040e-04	2	3.593250e-02	2.181520e-03	2	false	GAMG	4.071200e-02	2.472080e-03	2	true
111           	smoothSolver	7.383550e-03	5.161440e-04	2	3.908930e-02	2.381610e-03	2	false	GAMG	4.218080e-02	2.687860e-03	2	true
112           	smoothSolver	7.491380e-03	5.248420e-04	2	3.933220e-02	2.375320e-03	2	false	GAMG	5.239110e-02	2.968320e-03	2	true
113           	smoothSolver	7.610520e-03	5.349930e-04	2	4.001370e-02	2.411550e-03	2	false	GAMG	4.771110e-02	3.337210e-03	2	true
114           	smoothSolver	7.722750e-03	5.503230e-04	2	4.025850e-02	2.440060e-03	2	false	GAMG	5.419160e-02	3.148710e-03	2	true
115           	smoothSolver	7.861180e-03	5.615740e-04	2	4.103710e-02	2.479530e-03	2	false	GAMG	5.273790e-02	3.107160e-03	2	true
116           	smoothSolver	7.982480e-03	5.741460e-04	2	4.182890e-02	2.533750e-03	2	false	GAMG	5.548280e-02	3.340760e-03	2	true
117           	smoothSolver	8.129840e-03	5.918990e-04	2	4.267240e-02	2.617770e-03	2	false	GAMG	7.726250e-02	7.711460e-03	1	true
118           	smoothSolver	8.302360e-03	6.012350e-04	2	4.366360e-02	2.703990e-03	2	false	GAMG	7.524150e-02	6.435630e-03	2	true
119           	smoothSolver	8.480270e-03	6.339850e-04	2	4.550730e-02	2.858390e-03	2	false	GAMG	7.524170e-02	5.278280e-03	2	true
120           	smoothSolver	8.616540e-03	6.518830e-04	2	4.553660e-02	2.852570e-03	2	false	GAMG	8.723820e-02	8.685330e-03	1	true
121           	smoothSolver	8.758620e-03	6.623280e-04	2	4.606680e-02	2.910000e-03	2	false	GAMG	9.215330e-02	5.108100e-03	2	true
122           	smoothSolver	8.941060e-03	6.898020e-04	2	4.857720e-02	3.142410e-03	2	false	GAMG	1.175400e-01	6.827810e-03	2	true
123           	smoothSolver	9.116860e-03	7.134190e-04	2	4.978560e-02	3.269590e-03	2	false	GAMG	1.130780e-01	5.897560e-03	2	true
124           	smoothSolver	6.689280e-03	5.237600e-04	2	4.412680e-02	2.861460e-03	2	false	GAMG	1.358340e-01	1.342240e-02	1	true
125           	smoothSolver	9.403240e-03	7.432130e-04	2	4.991710e-02	3.266120e-03	2	false	GAMG	1.434710e-01	1.124920e-02	2	true
126           	smoothSolver	8.286140e-03	6.628760e-04	2	4.978960e-02	3.276100e-03	2	false	GAMG	1.514770e-01	1.501050e-02	1	true
127           	smoothSolver	9.554690e-03	7.654460e-04	2	5.161780e-02	3.394710e-03	2	false	GAMG	1.790890e-01	1.533610e-02	2	true
128           	smoothSolver	9.940770e-03	8.042620e-04	2	5.196680e-02	3.313870e-03	2	false	GAMG	1.788360e-01	1.512380e-02	1	true
129           	smoothSolver	1.000700e-02	8.079950e-04	2	5.168140e-02	3.307330e-03	2	false	GAMG	1.963190e-01	1.482840e-02	2	true
130           	smoothSolver	9.926490e-03	8.158340e-04	2	5.453090e-02	3.529420e-03	2	false	GAMG	1.151460e-01	1.083020e-02	1	true
131           	smoothSolver	9.452020e-03	7.727380e-04	2	5.277300e-02	3.397460e-03	2	false	GAMG	1.230130e-01	8.582020e-03	2	true
132           	smoothSolver	9.909230e-03	8.164250e-04	2	5.374880e-02	3.388100e-03	2	false	GAMG	1.047890e-01	8.982310e-03	1	true
133           	smoothSolver	9.834020e-03	8.067070e-04	2	5.294830e-02	3.328300e-03	2	false	GAMG	1.204850e-01	9.489290e-03	2	true
134           	smoothSolver	1.097450e-02	9.068470e-04	2	5.836970e-02	3.712470e-03	2	false	GAMG	1.208180e-01	6.054680e-03	2	true
135           	smoothSolver	9.949140e-03	8.249870e-04	2	5.455850e-02	3.391870e-03	2	false	GAMG	1.009520e-01	9.864170e-03	1	true
136           	smoothSolver	1.120310e-02	9.236040e-04	2	5.480640e-02	3.409290e-03	2	false	GAMG	1.051510e-01	6.696900e-03	2	true
137           	smoothSolver	1.045600e-02	8.720020e-04	2	5.668270e-02	3.524350e-03	2	false	GAMG	9.747960e-02	6.903520e-03	1	true
138           	smoothSolver	1.156330e-02	9.758830e-04	2	5.637760e-02	3.494960e-03	2	false	GAMG	8.597050e-02	3.403610e-03	2	true
139           	smoothSolver	1.142440e-02	9.785010e-04	2	5.713920e-02	3.499940e-03	2	false	GAMG	7.932720e-02	5.918360e-03	1	true
140           	smoothSolver	8.077780e-03	6.882320e-04	2	5.022300e-02	3.116820e-03	2	false	GAMG	9.209830e-02	3.762890e-03	2	true
141           	smoothSolver	1.187540e-02	1.029390e-03	2	5.756240e-02	3.559070e-03	2	false	GAMG	1.019290e-01	6.407580e-03	1	true
142           	smoothSolver	1.193740e-02	1.043650e-03	2	5.588600e-02	3.457510e-03	2	false	GAMG	8.873790e-02	3.582160e-03	2	true
143           	smoothSolver	8.677090e-03	7.598810e-04	2	5.257110e-02	3.282470e-03	2	false	GAMG	8.972760e-02	6.052780e-03	1	true
144           	smoothSolver	1.254260e-02	1.112260e-03	2	5.564630e-02	3.453890e-03	2	false	GAMG	1.024710e-01	8.813990e-03	1	true
145           	smoothSolver	1.270860e-02	1.120070e-03	2	5.494550e-02	3.423650e-03	2	false	GAMG	1.100680e-01	9.118260e-03	1	true
146           	smoothSolver	1.271690e-02	1.148360e-03	2	5.518210e-02	3.478360e-03	2	false	GAMG	1.137430e-01	8.733000e-03	1	true
147           	smoothSolver	1.296600e-02	1.187200e-03	2	5.554290e-02	3.569170e-03	2	false	GAMG	1.121590e-01	9.404690e-03	1	true
148           	smoothSolver	1.328500e-02	1.212050e-03	2	5.616310e-02	3.547180e-03	2	false	GAMG	1.024360e-01	9.317180e-03	1	true
149           	smoothSolver	1.334110e-02	1.242080e-03	2	5.572760e-02	3.625150e-03	2	false	GAMG	1.057230e-01	8.881210e-03	1	true
150           	smoothSolver	1.366180e-02	1.267220e-03	2	5.552540e-02	3.592820e-03	2	false	GAMG	1.079930e-01	8.618220e-03	1	true
151           	smoothSolver	1.381680e-02	1.312290e-03	2	5.522380e-02	3.580880e-03	2	false	GAMG	1.050940e-01	9.172890e-03	1	true
152           	smoothSolver	1.399550e-02	1.327260e-03	2	5.556980e-02	3.633660e-03	2	false	GAMG	1.409100e-01	9.759080e-03	1	true
153           	smoothSolver	1.427010e-02	1.372810e-03	2	5.584480e-02	3.686050e-03	2	false	GAMG	1.181190e-01	9.036450e-03	1	true
154           	smoothSolver	1.443660e-02	1.380390e-03	2	5.609900e-02	3.781670e-03	2	false	GAMG	1.214480e-01	8.733100e-03	1	true
155           	smoothSolver	1.353840e-02	1.312170e-03	2	5.556910e-02	3.766940e-03	2	false	GAMG	1.244600e-01	8.926710e-03	1	true
156           	smoothSolver	1.474690e-02	1.429640e-03	2	5.693270e-02	3.856380e-03	2	false	GAMG	1.308470e-01	9.451510e-03	1	true
157           	smoothSolver	1.488960e-02	1.461080e-03	2	5.682450e-02	3.970450e-03	2	false	GAMG	1.216030e-01	1.032330e-02	1	true
158           	smoothSolver	1.522990e-02	1.503370e-03	2	5.767810e-02	4.051130e-03	2	false	GAMG	1.512190e-01	1.183590e-02	1	true
159           	smoothSolver	1.407420e-02	1.374060e-03	2	5.669850e-02	4.040720e-03	2	false	GAMG	1.273490e-01	9.745880e-03	1	true
160           	smoothSolver	1.510270e-02	1.501320e-03	2	5.795750e-02	4.149880e-03	2	false	GAMG	1.333710e-01	9.099300e-03	1	true
161           	smoothSolver	1.443350e-02	5.885520e-04	3	5.737120e-02	4.193930e-03	2	false	GAMG	1.355090e-01	1.007720e-02	1	true
162           	smoothSolver	1.457900e-02	5.927820e-04	3	5.848490e-02	4.270580e-03	2	false	GAMG	1.431710e-01	1.058290e-02	1	true
163           	smoothSolver	1.566360e-02	6.356790e-04	3	5.960610e-02	4.418230e-03	2	false	GAMG	1.339000e-01	1.046200e-02	1	true
164           	smoothSolver	1.563870e-02	6.448310e-04	3	6.073880e-02	4.495490e-03	2	false	GAMG	1.520210e-01	1.017990e-02	1	true
165           	smoothSolver	1.362950e-02	5.607220e-04	3	5.991570e-02	4.512870e-03	2	false	GAMG	1.327460e-01	9.114760e-03	1	true
166           	smoothSolver	1.162160e-02	4.918190e-04	3	5.972160e-02	4.552500e-03	2	false	GAMG	1.365400e-01	8.801670e-03	1	true
167           	smoothSolver	1.508070e-02	6.426990e-04	3	6.312190e-02	4.858030e-03	2	false	GAMG	1.442550e-01	1.089470e-02	1	true
168           	smoothSolver	1.558720e-02	6.841550e-04	3	6.386890e-02	4.982680e-03	2	false	GAMG	1.313130e-01	9.540450e-03	1	true
169           	smoothSolver	1.396480e-02	6.193280e-04	3	6.487430e-02	5.095850e-03	2	false	GAMG	1.275740e-01	7.952430e-03	1	true
170           	smoothSolver	1.638740e-02	7.598110e-04	3	6.730100e-02	5.353790e-03	2	false	GAMG	1.258690e-01	8.356290e-03	1	true
171           	smoothSolver	1.652650e-02	7.608240e-04	3	6.811370e-02	5.433130e-03	2	false	GAMG	1.114620e-01	7.656040e-03	1	true
172           	smoothSolver	1.652240e-02	7.872400e-04	3	6.909180e-02	5.688310e-03	2	false	GAMG	1.125450e-01	7.668660e-03	1	true
173           	smoothSolver	1.439330e-02	6.862530e-04	3	6.801400e-02	5.505020e-03	2	false	GAMG	1.026660e-01	7.255270e-03	1	true
174           	smoothSolver	1.651900e-02	8.097820e-04	3	6.955840e-02	5.876320e-03	2	false	GAMG	1.279280e-01	6.661330e-03	1	true
175           	smoothSolver	1.664910e-02	8.235840e-04	3	6.839600e-02	5.829380e-03	2	false	GAMG	1.106470e-01	6.874890e-03	1	true
176           	smoothSolver	1.668490e-02	8.441820e-04	3	6.686770e-02	5.891130e-03	2	false	GAMG	9.518690e-02	5.057440e-03	1	true
177           	smoothSolver	1.659330e-02	8.270630e-04	3	6.492260e-02	5.787700e-03	2	false	GAMG	8.970110e-02	5.201490e-03	1	true
178           	smoothSolver	1.564480e-02	8.052800e-04	3	6.276000e-02	5.644250e-03	2	false	GAMG	7.730730e-02	4.424010e-03	1	true
179           	smoothSolver	1.666940e-02	8.421100e-04	3	6.218660e-02	5.629960e-03	2	false	GAMG	7.916660e-02	4.215140e-03	1	true
180           	smoothSolver	1.663190e-02	8.505920e-04	3	6.052640e-02	5.594630e-03	2	false	GAMG	7.510120e-02	4.407180e-03	1	true
181           	smoothSolver	1.672400e-02	8.527270e-04	3	6.020630e-02	5.595240e-03	2	false	GAMG	8.060640e-02	5.350870e-03	1	true
182           	smoothSolver	1.681340e-02	8.449420e-04	3	5.899860e-02	5.594880e-03	2	false	GAMG	7.752240e-02	5.650780e-03	1	true
183           	smoothSolver	1.699430e-02	8.758490e-04	3	6.066760e-02	5.843840e-03	2	false	GAMG	9.467630e-02	5.200920e-03	1	true
184           	smoothSolver	1.714290e-02	8.687940e-04	3	6.130030e-02	5.976890e-03	2	false	GAMG	5.737190e-02	4.183250e-03	1	true
185           	smoothSolver	1.722680e-02	8.965800e-04	3	6.239630e-02	2.826280e-03	3	false	GAMG	5.176770e-02	3.979960e-03	1	true
186           	smoothSolver	1.718860e-02	8.927530e-04	3	6.333490e-02	6.068520e-03	2	false	GAMG	4.259860e-02	3.735030e-03	1	true
187           	smoothSolver	1.720980e-02	9.343510e-04	3	6.436460e-02	3.031340e-03	3	false	GAMG	4.822150e-02	3.758810e-03	2	true
188           	smoothSolver	1.908150e-02	1.028810e-03	3	6.813940e-02	3.279570e-03	3	false	GAMG	8.753940e-02	7.521660e-03	1	true
189           	smoothSolver	1.662600e-02	9.716640e-04	3	6.576110e-02	3.335160e-03	3	false	GAMG	9.894860e-02	9.604670e-03	1	true
190           	smoothSolver	1.410910e-02	9.146210e-04	3	6.327890e-02	3.312180e-03	3	false	GAMG	1.204040e-01	9.669620e-03	2	true
191           	smoothSolver	1.403040e-02	9.231940e-04	3	6.299540e-02	3.210950e-03	3	false	GAMG	7.510400e-02	6.970970e-03	1	true
192           	smoothSolver	1.226710e-02	8.749130e-04	3	5.962630e-02	3.236670e-03	3	false	GAMG	5.904260e-02	2.984540e-03	2	true
193           	smoothSolver	1.174630e-02	9.026400e-04	3	5.337300e-02	3.136020e-03	3	false	GAMG	8.491950e-02	6.957380e-03	1	true
194           	smoothSolver	1.086270e-02	8.588990e-04	3	4.952310e-02	2.991010e-03	3	false	GAMG	7.791190e-02	4.563610e-03	2	true
195           	smoothSolver	9.473510e-03	7.973600e-04	3	4.670240e-02	2.694500e-03	3	false	GAMG	1.545390e-01	1.123620e-02	1	true
196           	smoothSolver	8.695510e-03	7.608770e-04	3	4.344410e-02	2.607370e-03	3	false	GAMG	1.288400e-01	1.278670e-02	1	true
197           	smoothSolver	7.775900e-03	7.453140e-04	3	3.946140e-02	2.453230e-03	3	false	GAMG	9.542110e-02	8.929670e-03	1	true
198           	smoothSolver	7.113140e-03	4.155970e-04	4	3.586930e-02	2.304350e-03	3	false	GAMG	7.066360e-02	6.059790e-03	1	true
199           	smoothSolver	6.832960e-03	4.086580e-04	4	3.389080e-02	2.238510e-03	3	false	GAMG	5.977350e-02	5.167510e-03	1	true
200           	smoothSolver	6.585900e-03	3.963880e-04	4	3.180240e-02	2.155000e-03	3	false	GAMG	5.250910e-02	4.804440e-03	1	true
201           	smoothSolver	6.328310e-03	3.853700e-04	4	3.033490e-02	2.040350e-03	3	false	GAMG	4.737730e-02	4.606170e-03	1	true
202           	smoothSolver	6.067180e-03	3.728280e-04	4	2.898670e-02	1.937190e-03	3	false	GAMG	4.635380e-02	4.291790e-03	1	true
203           	smoothSolver	5.788680e-03	3.607130e-04	4	2.803330e-02	1.858310e-03	3	false	GAMG	4.166040e-02	3.983730e-03	1	true
204           	smoothSolver	5.519700e-03	3.473660e-04	4	2.712990e-02	1.791290e-03	3	false	GAMG	4.273960e-02	4.135190e-03	1	true
205           	smoothSolver	5.236930e-03	3.354560e-04	4	2.638220e-02	1.740420e-03	3	false	GAMG	3.810720e-02	1.810940e-03	2	true
206           	smoothSolver	5.187340e-03	3.259520e-04	4	2.648200e-02	1.698030e-03	3	false	GAMG	4.072230e-02	3.161980e-03	1	true
207           	smoothSolver	4.884250e-03	3.152320e-04	4	2.562030e-02	1.701280e-03	3	false	GAMG	4.313530e-02	4.174950e-03	1	true
208           	smoothSolver	4.600370e-03	3.037400e-04	4	2.573950e-02	1.646040e-03	3	false	GAMG	4.264440e-02	1.894890e-03	2	true
209           	smoothSolver	4.599490e-03	2.928420e-04	4	2.593410e-02	1.656900e-03	3	false	GAMG	5.958090e-02	5.000240e-03	1	true
210           	smoothSolver	4.421000e-03	2.805010e-04	4	2.553010e-02	1.651730e-03	3	false	GAMG	5.892490e-02	2.057410e-03	2	true
211           	smoothSolver	4.109360e-03	2.629550e-04	4	2.637790e-02	1.631220e-03	3	false	GAMG	5.657340e-02	4.664450e-03	1	true
212           	smoothSolver	3.915150e-03	2.505260e-04	4	2.590480e-02	1.664190e-03	3	false	GAMG	5.365650e-02	2.043080e-03	2	true
213           	smoothSolver	3.615800e-03	2.351800e-04	4	2.588020e-02	1.603250e-03	3	false	GAMG	5.106850e-02	4.172970e-03	1	true
214           	smoothSolver	3.481410e-03	2.255950e-04	4	2.516990e-02	1.623950e-03	3	false	GAMG	4.897810e-02	1.732720e-03	2	true
215           	smoothSolver	3.349920e-03	2.151390e-04	4	2.487150e-02	1.579650e-03	3	false	GAMG	4.604300e-02	3.708370e-03	1	true
216           	smoothSolver	3.288580e-03	2.070480e-04	4	2.377600e-02	1.548850e-03	3	false	GAMG	4.576670e-02	4.279690e-03	1	true
217           	smoothSolver	3.228690e-03	1.980900e-04	4	2.290890e-02	1.523220e-03	3	false	GAMG	4.648700e-02	1.538360e-03	2	true
218           	smoothSolver	3.160510e-03	1.891620e-04	4	2.249600e-02	1.465370e-03	3	false	GAMG	4.839960e-02	3.354550e-03	1	true
219           	smoothSolver	3.055810e-03	1.819330e-04	4	2.184440e-02	1.425810e-03	3	false	GAMG	5.085050e-02	4.523880e-03	1	true
220           	smoothSolver	2.974530e-03	1.761180e-04	4	2.152810e-02	1.415060e-03	3	false	GAMG	5.498000e-02	1.678690e-03	2	true
221           	smoothSolver	2.960710e-03	2.925780e-04	3	2.162920e-02	1.381480e-03	3	false	GAMG	4.983960e-02	3.625630e-03	1	true
222           	smoothSolver	2.881810e-03	2.854460e-04	3	2.136530e-02	1.367120e-03	3	false	GAMG	5.064730e-02	4.898000e-03	1	true
223           	smoothSolver	2.848880e-03	2.805770e-04	3	2.128140e-02	1.360980e-03	3	false	GAMG	5.368920e-02	1.821920e-03	2	true
224           	smoothSolver	2.877140e-03	2.764240e-04	3	2.171840e-02	1.336730e-03	3	false	GAMG	4.659830e-02	3.342280e-03	1	true
225           	smoothSolver	2.823200e-03	2.705780e-04	3	2.167490e-02	1.350810e-03	3	false	GAMG	5.084330e-02	1.414160e-03	2	true
226           	smoothSolver	2.838250e-03	2.676330e-04	3	2.214620e-02	1.353960e-03	3	false	GAMG	4.951710e-02	3.800680e-03	1	true
227           	smoothSolver	2.805220e-03	2.632050e-04	3	2.215240e-02	1.355870e-03	3	false	GAMG	4.997930e-02	1.607830e-03	2	true
228           	smoothSolver	2.815220e-03	2.591960e-04	3	2.263830e-02	1.393930e-03	3	false	GAMG	5.049760e-02	4.153420e-03	1	true
229           	smoothSolver	2.805690e-03	2.567860e-04	3	2.272580e-02	1.381240e-03	3	false	GAMG	5.193520e-02	1.847500e-03	2	true
230           	smoothSolver	2.808970e-03	2.541500e-04	3	2.320980e-02	1.405770e-03	3	false	GAMG	4.846870e-02	4.123220e-03	1	true
231           	smoothSolver	2.800110e-03	2.514890e-04	3	2.325070e-02	1.425990e-03	3	false	GAMG	5.572880e-02	1.934810e-03	2	true
232           	smoothSolver	2.824210e-03	2.509860e-04	3	2.371720e-02	1.427920e-03	3	false	GAMG	4.896130e-02	3.956530e-03	1	true