0.0508 	-148.79 	44.4062 	-0.132521 	0 	-7.62869e-05 	0.000134903 	0 	7.62676e-05 	0 	1.93491e-08
