0 	-192.087 	0 	0 	0 	-0.000291137 	-0.0575053 	0 	0.000237225 	0 	5.39123e-05
5.37817e-05 	-192.087 	0.178893 	-0.000657868 	0 	-0.000490113 	-0.0452904 	0 	0.000490077 	0 	3.5437e-08
0.000109704 	-192.087 	0.318774 	-0.00174218 	0 	-0.000548426 	-0.0327862 	0 	0.000541517 	0 	6.90985e-06
0.000167852 	-192.086 	0.416521 	-0.00260157 	0 	-0.000119411 	-0.0197915 	0 	0.000121686 	0 	-2.27474e-06
0.000228314 	-192.086 	0.46584 	-0.00217406 	0 	0.000981968 	-0.00614928 	0 	-0.000977444 	0 	-4.52372e-06
0.000291182 	-192.085 	0.46171 	0.00104237 	0 	0.00313298 	0.00854577 	0 	-0.00314359 	0 	1.06146e-05
0.000356552 	-192.083 	0.407358 	0.00850363 	0 	0.00705932 	0.0252638 	0 	-0.00709313 	0 	3.38137e-05
0.000424524 	-192.079 	0.316018 	0.0210648 	0 	0.0136712 	0.0445377 	0 	-0.013713 	0 	4.18692e-05
0.000495201 	-192.073 	0.201988 	0.0391163 	0 	0.0235516 	0.0655429 	0 	-0.0235742 	0 	2.25472e-05
0.000568691 	-192.065 	0.0734638 	0.063047 	0 	0.0367083 	0.0870406 	0 	-0.0367044 	0 	-3.86063e-06
0.000645106 	-192.054 	-0.0663701 	0.0933051 	0 	0.0527534 	0.108197 	0 	-0.0527401 	0 	-1.33029e-05
0.000724562 	-192.042 	-0.216195 	0.130234 	0 	0.0711752 	0.128447 	0 	-0.0711682 	0 	-6.9868e-06
0.00080718 	-192.029 	-0.374771 	0.173965 	0 	0.0915203 	0.147338 	0 	-0.0915184 	0 	-1.90694e-06
0.000893086 	-192.016 	-0.540385 	0.224395 	0 	0.113318 	0.16433 	0 	-0.113314 	0 	-3.94512e-06
0.000982412 	-192.002 	-0.710876 	0.281216 	0 	0.136067 	0.178853 	0 	-0.136063 	0 	-4.454e-06
0.00107529 	-191.99 	-0.883728 	0.343913 	0 	0.159328 	0.190455 	0 	-0.159323 	0 	-5.20964e-06
0.00117187 	-191.978 	-1.05616 	0.411754 	0 	0.18267 	0.198767 	0 	-0.182656 	0 	-1.36121e-05
0.00127229 	-191.968 	-1.22535 	0.483845 	0 	0.20554 	0.203423 	0 	-0.20552 	0 	-2.07202e-05
0.00137671 	-191.961 	-1.38859 	0.559187 	0 	0.227427 	0.204189 	0 	-0.227407 	0 	-1.99376e-05
0.00148528 	-191.957 	-1.54335 	0.636693 	0 	0.247967 	0.201015 	0 	-0.247944 	0 	-2.33586e-05
0.00159817 	-191.956 	-1.6874 	0.715234 	0 	0.266679 	0.193826 	0 	-0.266645 	0 	-3.42149e-05
0.00171556 	-191.96 	-1.81895 	0.793733 	0 	0.283077 	0.182674 	0 	-0.283036 	0 	-4.10567e-05
0.00183762 	-191.968 	-1.93668 	0.871198 	0 	0.296777 	0.167778 	0 	-0.296738 	0 	-3.9231e-05
0.00196453 	-191.982 	-2.03975 	0.946744 	0 	0.307548 	0.14949 	0 	-0.307512 	0 	-3.57346e-05
0.0020965 	-192 	-2.1277 	1.0196 	0 	0.315267 	0.128257 	0 	-0.315229 	0 	-3.71436e-05
0.00223372 	-192.024 	-2.20043 	1.08913 	0 	0.319778 	0.104529 	0 	-0.319742 	0 	-3.65985e-05
0.0023764 	-192.054 	-2.25818 	1.15484 	0 	0.321036 	0.0787861 	0 	-0.321005 	0 	-3.04287e-05
0.00252476 	-192.089 	-2.30141 	1.2164 	0 	0.319098 	0.0514862 	0 	-0.319074 	0 	-2.33449e-05
0.00267902 	-192.13 	-2.33076 	1.27358 	0 	0.314073 	0.023036 	0 	-0.314058 	0 	-1.53866e-05
0.00283942 	-192.175 	-2.347 	1.32629 	0 	0.306133 	-0.0062155 	0 	-0.306126 	0 	-6.57999e-06
0.00300621 	-192.225 	-2.35093 	1.37451 	0 	0.29546 	-0.0360006 	0 	-0.295463 	0 	2.94136e-06
0.00317963 	-192.278 	-2.34339 	1.41833 	0 	0.282234 	-0.0661388 	0 	-0.282248 	0 	1.46633e-05
0.00335996 	-192.335 	-2.32515 	1.45787 	0 	0.266631 	-0.0965314 	0 	-0.266659 	0 	2.75487e-05
0.00354746 	-192.394 	-2.29693 	1.49326 	0 	0.248805 	-0.127157 	0 	-0.248845 	0 	4.02326e-05
0.00374243 	-192.455 	-2.25932 	1.52466 	0 	0.228862 	-0.158043 	0 	-0.228916 	0 	5.38318e-05
0.00394515 	-192.516 	-2.21283 	1.55222 	0 	0.206882 	-0.189254 	0 	-0.20695 	0 	6.75548e-05
0.00415594 	-192.577 	-2.15786 	1.57604 	0 	0.182917 	-0.220872 	0 	-0.182995 	0 	7.78769e-05
0.00437513 	-192.637 	-2.09471 	1.59621 	0 	0.156948 	-0.252956 	0 	-0.157031 	0 	8.35554e-05
0.00460303 	-192.695 	-2.02362 	1.61276 	0 	0.128888 	-0.285515 	0 	-0.128974 	0 	8.57426e-05
0.00484 	-192.749 	-1.94475 	1.62566 	0 	0.0986156 	-0.318488 	0 	-0.0987011 	0 	8.5545e-05
0.00508641 	-192.799 	-1.85822 	1.63486 	0 	0.0659918 	-0.35171 	0 	-0.0660754 	0 	8.35705e-05
0.00534262 	-192.844 	-1.76414 	1.64025 	0 	0.0308845 	-0.38492 	0 	-0.0309639 	0 	7.94283e-05
0.00560903 	-192.883 	-1.66258 	1.64165 	0 	-0.00683282 	-0.417735 	0 	0.00675937 	0 	7.34478e-05
0.00588605 	-192.915 	-1.55366 	1.63886 	0 	-0.0472813 	-0.449625 	0 	0.0472146 	0 	6.66686e-05
0.00617408 	-192.939 	-1.4375 	1.6316 	0 	-0.0905688 	-0.479902 	0 	0.0905112 	0 	5.75823e-05
0.00647358 	-192.954 	-1.31428 	1.61955 	0 	-0.136792 	-0.507747 	0 	0.13675 	0 	4.19346e-05
0.006785 	-192.959 	-1.18418 	1.60229 	0 	-0.186032 	-0.532277 	0 	0.18602 	0 	1.12884e-05
0.00710882 	-192.955 	-1.04731 	1.57926 	0 	-0.238237 	-0.552606 	0 	0.238272 	0 	-3.50409e-05
0.00744552 	-192.938 	-0.90352 	1.54976 	0 	-0.293076 	-0.568435 	0 	0.293148 	0 	-7.19472e-05
0.00779562 	-192.907 	-0.75199 	1.5128 	0 	-0.349936 	-0.581208 	0 	0.350059 	0 	-0.000122678
0.00815966 	-192.857 	-0.590006 	1.46685 	0 	-0.406916 	-0.594064 	0 	0.407203 	0 	-0.000287269
0.00853818 	-192.784 	-0.410666 	1.40922 	0 	-0.461692 	-0.616003 	0 	0.461972 	0 	-0.000280026
0.00893177 	-192.678 	-0.199225 	1.33585 	0 	-0.515719 	-0.672145 	0 	0.515309 	0 	0.000410336
0.00934102 	-192.528 	0.0774372 	1.24019 	0 	-0.572115 	-0.807654 	0 	0.571344 	0 	0.000770304
0.00976656 	-192.333 	0.50098 	1.10894 	0 	-0.645549 	-1.10272 	0 	0.645887 	0 	-0.000338067
0.010209 	-192.106 	1.2477 	0.919885 	0 	-0.778414 	-1.70781 	0 	0.779115 	0 	-0.000701892
0.0106691 	-191.848 	2.56347 	0.657987 	0 	-1.00512 	-2.85989 	0 	1.00501 	0 	0.000112404
0.0111475 	-191.542 	4.6289 	0.33733 	0 	-1.25962 	-4.66889 	0 	1.25873 	0 	0.000896223
0.011645 	-191.16 	7.52174 	-0.00482563 	0 	-1.38357 	-6.90966 	0 	1.38577 	0 	-0.00219799
0.0121622 	-190.685 	11.3371 	-0.332958 	0 	-1.19759 	-8.98682 	0 	1.19787 	0 	-0.00028802
0.0127 	-190.197 	14.9371 	-0.536077 	0 	-0.792474 	-9.81302 	0 	0.793511 	0 	-0.00103706
0.0127314 	-189.939 	16.5514 	-0.58717 	0 	-0.555646 	-9.71441 	0 	0.560578 	0 	-0.00493252
0.0127673 	-189.877 	16.9231 	-0.597376 	0 	-0.50179 	-9.6467 	0 	0.502997 	0 	-0.00120728
0.0128085 	-189.814 	17.3537 	-0.607922 	0 	-0.443114 	-9.5482 	0 	0.4429 	0 	0.000214542
0.0128557 	-189.743 	17.8529 	-0.618679 	0 	-0.378269 	-9.40832 	0 	0.378102 	0 	0.000166459
0.0129099 	-189.661 	18.432 	-0.629251 	0 	-0.305732 	-9.21105 	0 	0.305702 	0 	3.01334e-05
0.012972 	-189.566 	19.1038 	-0.638992 	0 	-0.225903 	-8.93497 	0 	0.225885 	0 	1.81661e-05
0.0130432 	-189.457 	19.8821 	-0.646986 	0 	-0.140779 	-8.5507 	0 	0.140718 	0 	6.08057e-05
0.0131248 	-189.332 	20.781 	-0.651995 	0 	-0.054576 	-8.02026 	0 	0.0543959 	0 	0.000180108
0.0132184 	-189.191 	21.8113 	-0.652465 	0 	0.0248041 	-7.29942 	0 	-0.0252437 	0 	0.000439656
0.0133257 	-189.035 	22.9734 	-0.646835 	0 	0.0840873 	-6.34986 	0 	-0.0846312 	0 	0.000543906
0.0134487 	-188.871 	24.2409 	-0.634817 	0 	0.105962 	-5.1906 	0 	-0.105775 	0 	-0.000186975
0.0135897 	-188.718 	25.5411 	-0.620066 	0 	0.0809723 	-3.9735 	0 	-0.079943 	0 	-0.00102934
0.0137514 	-188.589 	26.7717 	-0.610566 	0 	0.0245552 	-2.95574 	0 	-0.0240098 	0 	-0.000545413
0.0139367 	-188.475 	27.8858 	-0.61267 	0 	-0.0288731 	-2.28442 	0 	0.0285672 	0 	0.000305905
0.0141493 	-188.353 	28.9416 	-0.625665 	0 	-0.0552504 	-1.89541 	0 	0.0549259 	0 	0.000324498
0.0143929 	-188.203 	30.0404 	-0.644429 	0 	-0.0553762 	-1.62877 	0 	0.0552664 	0 	0.000109803
0.0146722 	-188.014 	31.2557 	-0.664555 	0 	-0.042341 	-1.33504 	0 	0.0423423 	0 	-1.2608e-06
0.0149925 	-187.775 	32.6251 	-0.684555 	0 	-0.0259629 	-0.907425 	0 	0.0259703 	0 	-7.4357e-06
0.0153596 	-187.475 	34.0921 	-0.704256 	0 	-0.0119403 	-0.423129 	0 	0.0119117 	0 	2.85708e-05
0.0157805 	-187.101 	35.3457 	-0.724052 	0 	-0.00392842 	-0.117144 	0 	0.00392936 	0 	-9.455e-07
0.0162631 	-186.643 	36.2028 	-0.743208 	0 	-0.0013375 	-0.027949 	0 	0.00133966 	0 	-2.15722e-06
0.0168164 	-186.091 	36.8885 	-0.761287 	0 	-0.000963187 	-0.0177141 	0 	0.000963129 	0 	5.78852e-08
0.0174507 	-185.425 	37.5731 	-0.779584 	0 	-0.000848222 	-0.0153548 	0 	0.000848089 	0 	1.33531e-07
0.018178 	-184.623 	38.2616 	-0.798137 	0 	-0.000746255 	-0.0134097 	0 	0.000746372 	0 	-1.1736e-07
0.0190117 	-183.66 	38.955 	-0.816749 	0 	-0.000652677 	-0.0117171 	0 	0.000652698 	0 	-2.05001e-08
0.0199676 	-182.511 	39.6541 	-0.83539 	0 	-0.000566559 	-0.0102433 	0 	0.000566604 	0 	-4.5543e-08
0.0210635 	-181.147 	40.3597 	-0.85379 	0 	-0.000486458 	-0.00895701 	0 	0.000486516 	0 	-5.79879e-08
0.02232 	-179.537 	41.0724 	-0.871839 	0 	-0.000411198 	-0.00783304 	0 	0.000411217 	0 	-1.92608e-08
0.0237605 	-177.65 	41.7928 	-0.889039 	0 	-0.000339992 	-0.00685128 	0 	0.000340087 	0 	-9.44608e-08
0.0254119 	-175.458 	42.5217 	-0.905234 	0 	-0.000272109 	-0.00599624 	0 	0.000272119 	0 	-9.97014e-09
0.0273053 	-172.928 	43.26 	-0.919541 	0 	-0.000207 	-0.00520929 	0 	0.000207095 	0 	-9.42114e-08
0.0294761 	-170.041 	43.9958 	-0.931789 	0 	-0.000124589 	-0.00408223 	0 	0.000124298 	0 	2.91054e-07
0.0319648 	-166.771 	44.5934 	-0.937029 	0 	9.04626e-06 	-0.0019697 	0 	-9.20249e-06 	0 	1.56233e-07
0.0348181 	-163.168 	44.7617 	-0.928294 	0 	0.000138503 	0.000180489 	0 	-0.00013788 	0 	-6.23607e-07
0.0380893 	-159.337 	44.6477 	-0.908756 	0 	0.000200499 	0.000865809 	0 	-0.000200439 	0 	-6.0449e-08
0.0418396 	-155.315 	44.5513 	-0.882578 	0 	0.000231601 	0.000733132 	0 	-0.000231594 	0 	-6.45328e-09
0.0461393 	-151.159 	44.4537 	-0.848305 	0 	0.000261679 	0.000648749 	0 	-0.000261623 	0 	-5.5729e-08
0.0510689 	-146.939 	44.3571 	-0.804443 	0 	0.000288056 	0.000561703 	0 	-0.000288051 	0 	-4.2628e-09
0.0567205 	-142.742 	44.2641 	-0.749898 	0 	0.000309812 	0.000473479 	0 	-0.000309781 	0 	-3.03893e-08
0.0632 	-138.764 	44.1798 	-0.68501 	0 	0.000326459 	0.000386424 	0 	-0.000326488 	0 	2.94139e-08
0.0696791 	-135.439 	44.114 	-0.617486 	0 	0.000337306 	0.000308448 	0 	-0.00033734 	0 	3.38912e-08
0.0753305 	-132.953 	44.0697 	-0.555571 	0 	0.000343622 	0.000243604 	0 	-0.000343652 	0 	2.95638e-08
0.0802599 	-131.123 	44.0422 	-0.500832 	0 	0.000347248 	0.000188475 	0 	-0.000347264 	0 	1.63021e-08
0.0845594 	-129.764 	44.0271 	-0.452674 	0 	0.000349354 	0.000139082 	0 	-0.000349369 	0 	1.5597e-08
0.0883097 	-128.747 	44.0216 	-0.410478 	0 	0.000350544 	9.2415e-05 	0 	-0.000350552 	0 	8.27136e-09
0.0915809 	-127.983 	44.0237 	-0.373562 	0 	0.000351172 	4.58761e-05 	0 	-0.00035118 	0 	8.44714e-09
0.0944341 	-127.405 	44.0321 	-0.341322 	0 	0.00035142 	-2.7818e-06 	0 	-0.000351425 	0 	4.56068e-09
0.0969229 	-126.967 	44.046 	-0.313183 	0 	0.000351404 	-5.55586e-05 	0 	-0.000351409 	0 	4.70205e-09
0.0990936 	-126.634 	44.0648 	-0.288645 	0 	0.000351187 	-0.000114052 	0 	-0.000351189 	0 	1.85598e-09
0.100987 	-126.38 	44.0878 	-0.267257 	0 	0.000350818 	-0.000179334 	0 	-0.000350824 	0 	6.34451e-09
0.102639 	-126.185 	44.1146 	-0.248622 	0 	0.000350317 	-0.000251838 	0 	-0.000350306 	0 	-1.05717e-08
