0.0131412 	-153.934 	20.0745 	-0.00506359 	0
0.0137126 	-153.918 	24.9633 	-0.00382232 	0
0.0142839 	-153.891 	28.9395 	0.0144297 	0
0.0148553 	-153.861 	31.9543 	0.0353683 	0
0.0154266 	-153.842 	33.5238 	0.0379093 	0
0.015998 	-153.821 	34.5048 	0.0345731 	0
0.0165693 	-153.797 	35.327 	0.0310064 	0
0.0171407 	-153.77 	36.0402 	0.0273479 	0
0.0177121 	-153.741 	36.673 	0.0236345 	0
0.0182834 	-153.708 	37.2474 	0.0198957 	0
0.0188548 	-153.672 	37.7635 	0.0160656 	0
0.0194261 	-153.634 	38.2347 	0.0122962 	0
0.0199975 	-153.594 	38.6861 	0.00855813 	0
0.0205688 	-153.548 	39.0867 	0.00472999 	0
0.0211402 	-153.504 	39.4809 	0.00102982 	0
0.0217116 	-153.452 	39.8347 	-0.00275441 	0
0.0222829 	-153.403 	40.1886 	-0.00642198 	0
0.0228543 	-153.346 	40.5041 	-0.0101249 	0
0.0234256 	-153.289 	40.817 	-0.0138389 	0
0.023997 	-153.231 	41.1152 	-0.0173743 	0
0.0245683 	-153.167 	41.3922 	-0.0210017 	0
0.0251397 	-153.104 	41.6693 	-0.0245829 	0
0.0257111 	-153.038 	41.9299 	-0.028035 	0
0.0262824 	-152.967 	42.1755 	-0.0315367 	0
0.0268538 	-152.895 	42.421 	-0.0350385 	0
0.0274251 	-152.826 	42.6608 	-0.0383485 	0
0.0279965 	-152.747 	42.8784 	-0.0417209 	0
0.0285678 	-152.667 	43.0961 	-0.0450933 	0
0.0291392 	-152.589 	43.3138 	-0.0484071 	0
0.0297106 	-152.51 	43.5117 	-0.0515597 	0
0.0302819 	-152.422 	43.6808 	-0.0546761 	0
0.0308533 	-152.333 	43.8499 	-0.0577926 	0
0.0314246 	-152.245 	44.0191 	-0.0608966 	0
0.031996 	-152.164 	44.1827 	-0.0638381 	0
0.0325673 	-152.068 	44.2455 	-0.0666072 	0
0.0331387 	-151.972 	44.3083 	-0.0693764 	0
0.0337101 	-151.876 	44.3711 	-0.0721456 	0
0.0342814 	-151.782 	44.434 	-0.0748868 	0
0.0348528 	-151.693 	44.4931 	-0.077524 	0
0.0354241 	-151.592 	44.4898 	-0.0799941 	0
0.0359955 	-151.492 	44.4865 	-0.0824642 	0
0.0365668 	-151.391 	44.4832 	-0.0849343 	0
0.0371382 	-151.29 	44.4799 	-0.0874043 	0
0.0377095 	-151.195 	44.4768 	-0.089817 	0
0.0382809 	-151.098 	44.4735 	-0.0921382 	0
0.0388523 	-150.994 	44.47 	-0.0943325 	0
0.0394236 	-150.889 	44.4664 	-0.0965268 	0
0.039995 	-150.784 	44.4629 	-0.0987212 	0
0.0405663 	-150.679 	44.4593 	-0.100915 	0
0.0411377 	-150.577 	44.4559 	-0.103092 	0
0.041709 	-150.481 	44.4525 	-0.105228 	0
0.0422804 	-150.376 	44.4493 	-0.10718 	0
0.0428518 	-150.268 	44.4462 	-0.109077 	0
0.0434231 	-150.161 	44.4431 	-0.110975 	0
0.0439945 	-150.053 	44.4399 	-0.112873 	0
0.0445658 	-149.945 	44.4368 	-0.11477 	0
0.0451372 	-149.838 	44.4337 	-0.116668 	0
0.0457085 	-149.739 	44.4307 	-0.118535 	0
0.0462799 	-149.638 	44.4278 	-0.120324 	0
0.0468513 	-149.529 	44.4251 	-0.121878 	0
0.0474226 	-149.42 	44.4223 	-0.123431 	0
0.047994 	-149.312 	44.4195 	-0.124985 	0
0.0485653 	-149.203 	44.4168 	-0.126538 	0
0.0491367 	-149.095 	44.414 	-0.128092 	0
0.049708 	-148.986 	44.4112 	-0.129645 	0
0.0502794 	-148.883 	44.4086 	-0.131198 	0
0.0508508 	-148.783 	44.406 	-0.13275 	0
0.0514221 	-148.678 	44.4036 	-0.134071 	0
0.0519935 	-148.571 	44.4012 	-0.135249 	0
0.0525648 	-148.464 	44.3988 	-0.136427 	0
0.0531362 	-148.357 	44.3964 	-0.137606 	0
0.0537075 	-148.25 	44.394 	-0.138784 	0
0.0542789 	-148.143 	44.3917 	-0.139962 	0
0.0548503 	-148.035 	44.3893 	-0.14114 	0
0.0554216 	-147.929 	44.3869 	-0.142319 	0
0.055993 	-147.83 	44.3847 	-0.143526 	0
0.0565643 	-147.731 	44.3825 	-0.144733 	0
0.0571357 	-147.631 	44.3806 	-0.145618 	0
0.057707 	-147.531 	44.3787 	-0.146383 	0
0.0582784 	-147.431 	44.3768 	-0.147147 	0
0.0588497 	-147.331 	44.3749 	-0.147912 	0
0.0594211 	-147.231 	44.373 	-0.148676 	0
0.0599925 	-147.131 	44.3711 	-0.149441 	0
0.0605638 	-147.031 	44.3693 	-0.150205 	0
0.0611352 	-146.931 	44.3674 	-0.15097 	0
0.0617065 	-146.831 	44.3655 	-0.151737 	0
0.0622779 	-146.738 	44.3638 	-0.152557 	0
0.0628492 	-146.646 	44.3621 	-0.153378 	0
0.0634206 	-146.553 	44.3605 	-0.154037 	0
0.063992 	-146.46 	44.3591 	-0.15444 	0
0.0645633 	-146.367 	44.3577 	-0.154843 	0
0.0651347 	-146.275 	44.3564 	-0.155245 	0
0.065706 	-146.182 	44.355 	-0.155648 	0
0.0662774 	-146.089 	44.3536 	-0.156051 	0
0.0668487 	-145.996 	44.3522 	-0.156454 	0
0.0674201 	-145.904 	44.3509 	-0.156857 	0
0.0679915 	-145.811 	44.3495 	-0.15726 	0
0.0685628 	-145.723 	44.3482 	-0.157719 	0
0.0691342 	-145.637 	44.347 	-0.158201 	0
0.0697055 	-145.55 	44.3458 	-0.158666 	0
0.0702769 	-145.464 	44.345 	-0.15877 	0
0.0708482 	-145.379 	44.3441 	-0.158875 	0
0.0714196 	-145.293 	44.3433 	-0.158979 	0
0.071991 	-145.207 	44.3425 	-0.159083 	0
0.0725623 	-145.121 	44.3416 	-0.159188 	0
0.0731337 	-145.035 	44.3408 	-0.159292 	0
0.073705 	-144.949 	44.34 	-0.159396 	0
0.0742764 	-144.865 	44.3392 	-0.159548 	0
0.0748477 	-144.785 	44.3385 	-0.159752 	0
0.0754191 	-144.706 	44.3379 	-0.159904 	0
0.0759905 	-144.629 	44.3376 	-0.159769 	0
0.0765618 	-144.552 	44.3374 	-0.159635 	0
0.0771332 	-144.476 	44.3372 	-0.1595 	0
0.0777045 	-144.399 	44.337 	-0.159365 	0
0.0782759 	-144.322 	44.3368 	-0.159231 	0
0.0788472 	-144.246 	44.3365 	-0.159096 	0
0.0794186 	-144.172 	44.3364 	-0.159024 	0
0.0799899 	-144.1 	44.3363 	-0.159002 	0
0.0805613 	-144.031 	44.3365 	-0.158826 	0
0.0811327 	-143.963 	44.3369 	-0.158511 	0
0.081704 	-143.895 	44.3374 	-0.158196 	0
0.0822754 	-143.828 	44.3378 	-0.157881 	0
0.0828467 	-143.76 	44.3383 	-0.157566 	0
0.0834181 	-143.692 	44.3387 	-0.157251 	0
0.0839894 	-143.628 	44.3393 	-0.15703 	0
0.0845608 	-143.565 	44.3398 	-0.156837 	0
0.0851322 	-143.505 	44.341 	-0.156384 	0
0.0857035 	-143.446 	44.3422 	-0.155932 	0
0.0862749 	-143.387 	44.3434 	-0.155479 	0
0.0868462 	-143.327 	44.3446 	-0.155027 	0
0.0874176 	-143.268 	44.3458 	-0.154574 	0
0.0879889 	-143.212 	44.3471 	-0.154248 	0
0.0885603 	-143.158 	44.3488 	-0.153822 	0
0.0891317 	-143.106 	44.3509 	-0.153266 	0
0.089703 	-143.055 	44.353 	-0.15271 	0
0.0902744 	-143.003 	44.355 	-0.152153 	0
0.0908457 	-142.951 	44.3571 	-0.151604 	0
0.0914171 	-142.903 	44.3593 	-0.151182 	0
0.0919884 	-142.857 	44.3621 	-0.150608 	0
0.0925598 	-142.812 	44.3653 	-0.149973 	0
0.0931312 	-142.767 	44.3684 	-0.149337 	0
0.0937025 	-142.721 	44.3715 	-0.148702 	0
0.0942739 	-142.679 	44.3747 	-0.148189 	0
0.0948452 	-142.639 	44.3788 	-0.14755 	0
0.0954166 	-142.6 	44.3832 	-0.146856 	0
0.0959879 	-142.561 	44.3876 	-0.146162 	0
0.0965593 	-142.523 	44.392 	-0.145521 	0
0.0971307 	-142.488 	44.3969 	-0.1449 	0
0.097702 	-142.454 	44.4029 	-0.144161 	0
0.0982734 	-142.42 	44.4088 	-0.143423 	0
0.0988447 	-142.388 	44.4147 	-0.142749 	0
0.0994161 	-142.358 	44.4216 	-0.142055 	0
0.0999874 	-142.329 	44.4293 	-0.141284 	0
0.100559 	-142.3 	44.437 	-0.140518 	0
0.10113 	-142.274 	44.4453 	-0.139849 	0
0.101702 	-142.249 	44.4551 	-0.139055 	0
0.102273 	-142.224 	44.465 	-0.138268 	0
0.102844 	-142.202 	44.4757 	-0.137561 	0
0.103416 	-142.181 	44.4879 	-0.136752 	0
0.103987 	-142.16 	44.5002 	-0.136006 	0
0.104558 	-142.142 	44.5147 	-0.135212 	0
0.10513 	-142.125 	44.5296 	-0.134416 	0
0.105701 	-142.109 	44.5464 	-0.133647 	0
0.106272 	-142.094 	44.5643 	-0.132848 	0
0.106844 	-142.081 	44.5843 	-0.132064 	0
0.107415 	-142.069 	44.6054 	-0.131296 	0
0.107986 	-142.058 	44.6295 	-0.130471 	0
0.108558 	-142.049 	44.6555 	-0.129697 	0
0.109129 	-142.042 	44.6838 	-0.12892 	0
0.109701 	-142.035 	44.7148 	-0.128141 	0
0.110272 	-142.03 	44.749 	-0.127357 	0
0.110843 	-142.026 	44.7867 	-0.126592 	0
0.111415 	-142.024 	44.8104 	-0.125935 	0
0.111986 	-142.02 	43.8763 	-0.112293 	0
0.112557 	-142.036 	39.8011 	-0.0619226 	0
0.113129 	-142.066 	33.728 	-0.021297 	0
0.1137 	-142.092 	1.57346e-10 	-5.24963e-15 	0
