0.0131412 	-163.643 	20.4886 	-0.0103512 	0
0.0137126 	-163.63 	24.8901 	-0.0216041 	0
0.0142839 	-163.593 	28.2804 	-0.0217902 	0
0.0148553 	-163.543 	31.3602 	-0.0121788 	0
0.0154266 	-163.485 	33.5725 	-0.00601148 	0
0.015998 	-163.427 	34.7438 	-0.0126465 	0
0.0165693 	-163.359 	35.583 	-0.0216437 	0
0.0171407 	-163.283 	36.297 	-0.0305478 	0
0.0177121 	-163.198 	36.9291 	-0.0393672 	0
0.0182834 	-163.105 	37.5021 	-0.0480827 	0
0.0188548 	-163.005 	38.0162 	-0.0565359 	0
0.0194261 	-162.893 	38.4849 	-0.0649442 	0
0.0199975 	-162.78 	38.9338 	-0.0731972 	0
0.0205688 	-162.652 	39.3315 	-0.0812591 	0
0.0211402 	-162.522 	39.7229 	-0.0892648 	0
0.0217116 	-162.38 	40.0736 	-0.0969889 	0
0.0222829 	-162.24 	40.4243 	-0.104661 	0
0.0228543 	-162.081 	40.7365 	-0.112124 	0
0.0234256 	-161.925 	41.0462 	-0.119435 	0
0.023997 	-161.757 	41.3408 	-0.12671 	0
0.0245683 	-161.585 	41.6145 	-0.133625 	0
0.0251397 	-161.414 	41.8882 	-0.140539 	0
0.0257111 	-161.226 	42.1451 	-0.147321 	0
0.0262824 	-161.038 	42.3872 	-0.153748 	0
0.0268538 	-160.849 	42.6292 	-0.160175 	0
0.0274251 	-160.653 	42.8652 	-0.16656 	0
0.0279965 	-160.444 	43.0789 	-0.172555 	0
0.0285678 	-160.239 	43.2927 	-0.178495 	0
0.0291392 	-160.034 	43.5064 	-0.184436 	0
0.0297106 	-159.814 	43.6993 	-0.190136 	0
0.0302819 	-159.591 	43.863 	-0.195298 	0
0.0308533 	-159.37 	44.0267 	-0.200451 	0
0.0314246 	-159.148 	44.1905 	-0.205604 	0
0.031996 	-158.925 	44.3483 	-0.210703 	0
0.0325673 	-158.682 	44.4055 	-0.214834 	0
0.0331387 	-158.449 	44.463 	-0.218918 	0
0.0337101 	-158.216 	44.5206 	-0.223003 	0
0.0342814 	-157.983 	44.5781 	-0.227087 	0
0.0348528 	-157.749 	44.6317 	-0.23112 	0
0.0354241 	-157.502 	44.6245 	-0.234337 	0
0.0359955 	-157.265 	44.6175 	-0.237545 	0
0.0365668 	-157.029 	44.6106 	-0.240753 	0
0.0371382 	-156.793 	44.6037 	-0.243961 	0
0.0377095 	-156.556 	44.5968 	-0.247169 	0
0.0382809 	-156.314 	44.5899 	-0.250138 	0
0.0388523 	-156.072 	44.5832 	-0.252656 	0
0.0394236 	-155.836 	44.5767 	-0.255185 	0
0.039995 	-155.6 	44.5702 	-0.257714 	0
0.0405663 	-155.363 	44.5638 	-0.260243 	0
0.0411377 	-155.127 	44.5573 	-0.262772 	0
0.041709 	-154.891 	44.5508 	-0.265301 	0
0.0422804 	-154.646 	44.5444 	-0.267251 	0
0.0428518 	-154.413 	44.5385 	-0.269101 	0
0.0434231 	-154.181 	44.5326 	-0.270952 	0
0.0439945 	-153.949 	44.5267 	-0.272804 	0
0.0445658 	-153.716 	44.5207 	-0.274655 	0
0.0451372 	-153.484 	44.5148 	-0.276506 	0
0.0457085 	-153.252 	44.5089 	-0.278358 	0
0.0462799 	-153.018 	44.503 	-0.280007 	0
0.0468513 	-152.785 	44.4975 	-0.281074 	0
0.0474226 	-152.561 	44.4921 	-0.282214 	0
0.047994 	-152.337 	44.4868 	-0.283353 	0
0.0485653 	-152.113 	44.4814 	-0.284492 	0
0.0491367 	-151.89 	44.4761 	-0.285632 	0
0.049708 	-151.666 	44.4707 	-0.286771 	0
0.0502794 	-151.442 	44.4654 	-0.28791 	0
0.0508508 	-151.218 	44.46 	-0.28905 	0
0.0514221 	-150.994 	44.4549 	-0.28967 	0
0.0519935 	-150.779 	44.4501 	-0.29005 	0
0.0525648 	-150.568 	44.4454 	-0.290487 	0
0.0531362 	-150.357 	44.4407 	-0.290924 	0
0.0537075 	-150.146 	44.436 	-0.291361 	0
0.0542789 	-149.935 	44.4313 	-0.291798 	0
0.0548503 	-149.724 	44.4266 	-0.292235 	0
0.0554216 	-149.513 	44.4219 	-0.292672 	0
0.055993 	-149.302 	44.4172 	-0.293109 	0
0.0565643 	-149.091 	44.4125 	-0.293546 	0
0.0571357 	-148.889 	44.4082 	-0.293386 	0
0.057707 	-148.696 	44.4042 	-0.293083 	0
0.0582784 	-148.508 	44.4004 	-0.292851 	0
0.0588497 	-148.32 	44.3965 	-0.292619 	0
0.0594211 	-148.131 	44.3927 	-0.292387 	0
0.0599925 	-147.943 	44.3888 	-0.292155 	0
0.0605638 	-147.755 	44.3849 	-0.291923 	0
0.0611352 	-147.566 	44.3811 	-0.291692 	0
0.0617065 	-147.378 	44.3772 	-0.29146 	0
0.0622779 	-147.19 	44.3734 	-0.291228 	0
0.0628492 	-147.001 	44.3695 	-0.290996 	0
0.0634206 	-146.818 	44.3659 	-0.29048 	0
0.063992 	-146.643 	44.3627 	-0.289547 	0
0.0645633 	-146.475 	44.3596 	-0.288747 	0
0.0651347 	-146.307 	44.3566 	-0.287946 	0
0.065706 	-146.139 	44.3535 	-0.287146 	0
0.0662774 	-145.971 	44.3504 	-0.286346 	0
0.0668487 	-145.803 	44.3474 	-0.285545 	0
0.0674201 	-145.635 	44.3443 	-0.284745 	0
0.0679915 	-145.467 	44.3413 	-0.283945 	0
0.0685628 	-145.299 	44.3382 	-0.283144 	0
0.0691342 	-145.131 	44.3352 	-0.282344 	0
0.0697055 	-144.963 	44.3321 	-0.281513 	0
0.0702769 	-144.805 	44.3297 	-0.280064 	0
0.0708482 	-144.654 	44.3274 	-0.278789 	0
0.0714196 	-144.502 	44.3251 	-0.277515 	0
0.071991 	-144.351 	44.3228 	-0.27624 	0
0.0725623 	-144.2 	44.3205 	-0.274965 	0
0.0731337 	-144.048 	44.3182 	-0.273691 	0
0.073705 	-143.897 	44.3159 	-0.272416 	0
0.0742764 	-143.745 	44.3136 	-0.271141 	0
0.0748477 	-143.594 	44.3113 	-0.269867 	0
0.0754191 	-143.445 	44.3091 	-0.268513 	0
0.0759905 	-143.308 	44.3076 	-0.266773 	0
0.0765618 	-143.176 	44.3061 	-0.265167 	0
0.0771332 	-143.043 	44.3047 	-0.263561 	0
0.0777045 	-142.911 	44.3032 	-0.261956 	0
0.0782759 	-142.778 	44.3018 	-0.26035 	0
0.0788472 	-142.646 	44.3003 	-0.258744 	0
0.0794186 	-142.514 	44.2988 	-0.257139 	0
0.0799899 	-142.381 	44.2974 	-0.255533 	0
0.0805613 	-142.255 	44.2963 	-0.253704 	0
0.0811327 	-142.138 	44.2957 	-0.25181 	0
0.081704 	-142.023 	44.2951 	-0.249963 	0
0.0822754 	-141.907 	44.2945 	-0.248116 	0
0.0828467 	-141.792 	44.2938 	-0.246269 	0
0.0834181 	-141.676 	44.2932 	-0.244422 	0
0.0839894 	-141.561 	44.2926 	-0.242576 	0
0.0845608 	-141.445 	44.292 	-0.240728 	0
0.0851322 	-141.342 	44.2923 	-0.238578 	0
0.0857035 	-141.241 	44.2926 	-0.236554 	0
0.0862749 	-141.14 	44.2929 	-0.234529 	0
0.0868462 	-141.039 	44.2932 	-0.232504 	0
0.0874176 	-140.938 	44.2935 	-0.230479 	0
0.0879889 	-140.838 	44.2938 	-0.228454 	0
0.0885603 	-140.741 	44.2945 	-0.226292 	0
0.0891317 	-140.653 	44.2958 	-0.224106 	0
0.089703 	-140.565 	44.2971 	-0.22195 	0
0.0902744 	-140.477 	44.2984 	-0.219794 	0
0.0908457 	-140.389 	44.2997 	-0.217638 	0
0.0914171 	-140.301 	44.301 	-0.215482 	0
0.0919884 	-140.22 	44.3031 	-0.213161 	0
0.0925598 	-140.144 	44.3056 	-0.210907 	0
0.0931312 	-140.067 	44.308 	-0.208653 	0
0.0937025 	-139.99 	44.3105 	-0.206399 	0
0.0942739 	-139.914 	44.3129 	-0.204145 	0
0.0948452 	-139.843 	44.3164 	-0.201757 	0
0.0954166 	-139.777 	44.3202 	-0.199431 	0
0.0959879 	-139.71 	44.324 	-0.197105 	0
0.0965593 	-139.643 	44.3278 	-0.194779 	0
0.0971307 	-139.579 	44.3322 	-0.192368 	0
0.097702 	-139.521 	44.3376 	-0.189983 	0
0.0982734 	-139.463 	44.3431 	-0.187605 	0
0.0988447 	-139.405 	44.3485 	-0.185226 	0
0.0994161 	-139.35 	44.355 	-0.182763 	0
0.0999874 	-139.3 	44.3623 	-0.180346 	0
0.100559 	-139.249 	44.3696 	-0.177929 	0
0.10113 	-139.2 	44.3775 	-0.17546 	0
0.101702 	-139.155 	44.387 	-0.173007 	0
0.102273 	-139.111 	44.3965 	-0.170563 	0
0.102844 	-139.069 	44.4069 	-0.168066 	0
0.103416 	-139.031 	44.4189 	-0.165604 	0
0.103987 	-138.992 	44.4309 	-0.163143 	0
0.104558 	-138.958 	44.4452 	-0.16063 	0
0.10513 	-138.924 	44.46 	-0.158158 	0
0.105701 	-138.893 	44.4767 	-0.155645 	0
0.106272 	-138.864 	44.4944 	-0.153166 	0
0.106844 	-138.838 	44.5145 	-0.150655 	0
0.107415 	-138.813 	44.5355 	-0.148166 	0
0.107986 	-138.79 	44.5597 	-0.145667 	0
0.108558 	-138.77 	44.5857 	-0.143163 	0
0.109129 	-138.751 	44.6141 	-0.140667 	0
0.109701 	-138.735 	44.6454 	-0.138182 	0
0.110272 	-138.721 	44.6799 	-0.135685 	0
0.110843 	-138.709 	44.7013 	-0.133332 	0
0.111415 	-138.696 	44.3746 	-0.126655 	0
0.111986 	-138.694 	41.9833 	-0.090571 	0
0.112557 	-138.706 	37.9203 	-0.0485138 	0
0.113129 	-138.73 	32.5477 	-0.0182515 	0
0.1137 	-138.751 	1.46787e-10 	-4.63727e-15 	0
