# y+ ()       
# Time        	patch         	min           	max           	average       
100           	lowerWallStartup	3.517073e-01	8.035166e-01	5.936233e-01
100           	upperWallStartup	5.893679e-02	8.250352e+00	6.479191e-01
100           	upperWall	6.305764e-02	6.359576e+00	5.437763e-01
100           	verticalWall	1.038404e-01	7.888149e+00	3.626864e+00
100           	lowerWall	5.400416e-02	2.358726e+00	4.959247e-01
200           	lowerWallStartup	3.516700e-01	7.593887e-01	5.838434e-01
200           	upperWallStartup	5.876786e-02	1.701224e+00	1.717340e-01
200           	upperWall	1.385423e-01	1.664490e+00	6.678257e-01
200           	verticalWall	1.143052e-01	1.131620e+01	5.493529e+00
200           	lowerWall	5.995926e-02	2.724705e+00	8.013286e-01
300           	lowerWallStartup	3.515448e-01	8.844975e-01	6.293627e-01
300           	upperWallStartup	5.509416e-02	1.113116e+00	1.455199e-01
300           	upperWall	5.469776e-02	8.072120e+00	8.111703e-01
300           	verticalWall	7.765716e-01	1.256357e+01	5.336810e+00
300           	lowerWall	8.753037e-02	1.755168e+00	9.119498e-01
400           	lowerWallStartup	3.516906e-01	8.611871e-01	6.201346e-01
400           	upperWallStartup	4.872297e-02	4.448087e-01	1.259323e-01
400           	upperWall	1.484196e-02	9.860202e+00	6.391223e-01
400           	verticalWall	2.276713e-01	5.390170e+00	3.241808e+00
400           	lowerWall	8.933994e-02	1.886556e+00	9.857100e-01
500           	lowerWallStartup	3.517070e-01	8.707791e-01	6.211823e-01
500           	upperWallStartup	5.276173e-02	4.022608e-01	1.213371e-01
500           	upperWall	1.688909e-02	5.863428e+00	4.100277e-01
500           	verticalWall	1.165883e-01	4.788967e+00	2.221214e+00
500           	lowerWall	1.028884e-01	1.512715e+00	9.409621e-01
600           	lowerWallStartup	3.517090e-01	8.527094e-01	6.149519e-01
600           	upperWallStartup	5.375222e-02	1.539559e-01	1.237710e-01
600           	upperWall	3.761647e-02	3.109648e+00	3.648795e-01
600           	verticalWall	7.158998e-02	3.754283e+00	2.317718e+00
600           	lowerWall	4.082263e-03	8.180714e+00	9.618909e-01
700           	lowerWallStartup	3.517007e-01	8.478353e-01	6.119250e-01
700           	upperWallStartup	5.413019e-02	1.539519e-01	1.247369e-01
700           	upperWall	5.360852e-02	7.464469e-01	3.331805e-01
700           	verticalWall	1.102021e-01	3.525434e+00	1.804905e+00
700           	lowerWall	4.761880e-02	1.161066e+00	7.093770e-01
800           	lowerWallStartup	3.516981e-01	8.497768e-01	6.119642e-01
800           	upperWallStartup	5.419411e-02	1.539458e-01	1.256030e-01
800           	upperWall	6.224125e-02	7.709802e-01	3.273400e-01
800           	verticalWall	8.752485e-02	3.386659e+00	1.664180e+00
800           	lowerWall	8.598563e-03	1.606075e+00	6.513571e-01
900           	lowerWallStartup	3.516934e-01	8.439188e-01	6.103125e-01
900           	upperWallStartup	5.436494e-02	1.539446e-01	1.271922e-01
900           	upperWall	6.341683e-02	7.555265e-01	3.233083e-01
900           	verticalWall	1.441542e-01	3.364659e+00	1.608541e+00
900           	lowerWall	2.599015e-02	9.407073e-01	6.312825e-01
1000          	lowerWallStartup	3.517123e-01	8.425257e-01	6.105738e-01
1000          	upperWallStartup	5.445261e-02	1.539473e-01	1.277601e-01
1000          	upperWall	6.418123e-02	7.489937e-01	3.238418e-01
1000          	verticalWall	8.215258e-02	4.322076e+00	1.516245e+00
1000          	lowerWall	1.511859e-02	9.185447e-01	6.089606e-01
1100          	lowerWallStartup	3.516969e-01	8.476584e-01	6.109845e-01
1100          	upperWallStartup	5.450239e-02	1.539482e-01	1.280140e-01
1100          	upperWall	6.508213e-02	7.418891e-01	3.257938e-01
1100          	verticalWall	6.994272e-02	3.387601e+00	1.434580e+00
1100          	lowerWall	3.212153e-02	9.039178e-01	5.826007e-01
1200          	lowerWallStartup	3.516966e-01	8.499303e-01	6.113169e-01
1200          	upperWallStartup	5.452439e-02	1.539478e-01	1.281052e-01
1200          	upperWall	6.560244e-02	7.339928e-01	3.289670e-01
1200          	verticalWall	1.125662e-01	3.402904e+00	1.389179e+00
1200          	lowerWall	1.505328e-02	8.947707e-01	5.720271e-01
1300          	lowerWallStartup	3.517130e-01	8.493962e-01	6.123602e-01
1300          	upperWallStartup	5.452866e-02	1.539460e-01	1.281767e-01
1300          	upperWall	6.588609e-02	7.294687e-01	3.310662e-01
1300          	verticalWall	7.026261e-02	4.955330e+00	1.458288e+00
1300          	lowerWall	2.537100e-02	8.919922e-01	5.724898e-01
1400          	lowerWallStartup	3.516964e-01	8.504027e-01	6.123363e-01
1400          	upperWallStartup	5.451981e-02	1.539461e-01	1.280568e-01
1400          	upperWall	6.580340e-02	7.304913e-01	3.330011e-01
1400          	verticalWall	6.613730e-02	4.824344e+00	1.518526e+00
1400          	lowerWall	2.119008e-02	8.744674e-01	5.742970e-01
1500          	lowerWallStartup	3.516978e-01	8.523924e-01	6.121126e-01
1500          	upperWallStartup	5.450078e-02	1.539456e-01	1.278797e-01
1500          	upperWall	6.570882e-02	7.349221e-01	3.348186e-01
1500          	verticalWall	1.076010e-01	3.416477e+00	1.505936e+00
1500          	lowerWall	6.530506e-03	8.439167e-01	5.685295e-01
1600          	lowerWallStartup	3.516986e-01	8.529473e-01	6.130726e-01
1600          	upperWallStartup	5.446539e-02	1.539457e-01	1.276662e-01
1600          	upperWall	6.554372e-02	7.390330e-01	3.362394e-01
1600          	verticalWall	1.159443e-01	4.387673e+00	1.601008e+00
1600          	lowerWall	1.493476e-02	2.198324e+00	5.820444e-01
1700          	lowerWallStartup	3.517166e-01	8.523422e-01	6.136210e-01
1700          	upperWallStartup	5.444090e-02	1.539448e-01	1.274970e-01
1700          	upperWall	6.531536e-02	7.416937e-01	3.372487e-01
1700          	verticalWall	9.893642e-02	3.428013e+00	1.586727e+00
1700          	lowerWall	1.410260e-02	1.023466e+00	5.745967e-01
1800          	lowerWallStartup	3.516992e-01	8.547564e-01	6.134946e-01
1800          	upperWallStartup	5.441203e-02	1.539470e-01	1.272947e-01
1800          	upperWall	6.501853e-02	7.438747e-01	3.379667e-01
1800          	verticalWall	8.189318e-03	1.694562e+01	1.728093e+00
1800          	lowerWall	1.692221e-02	2.291199e+00	5.849870e-01
1900          	lowerWallStartup	3.516981e-01	8.553999e-01	6.135222e-01
1900          	upperWallStartup	5.439663e-02	1.539468e-01	1.270788e-01
1900          	upperWall	6.481912e-02	7.463686e-01	3.384685e-01
1900          	verticalWall	8.125092e-02	3.437647e+00	1.596379e+00
1900          	lowerWall	3.132480e-02	8.046734e-01	5.741200e-01
2000          	lowerWallStartup	3.517122e-01	8.550449e-01	6.143389e-01
2000          	upperWallStartup	5.435285e-02	1.539471e-01	1.269506e-01
2000          	upperWall	6.463992e-02	7.490176e-01	3.387317e-01
2000          	verticalWall	6.867269e-02	5.630479e+00	1.651045e+00
2000          	lowerWall	3.111672e-02	8.033794e-01	5.763500e-01
