0.0131412 	-195.168 	13.4179 	-0.133313 	0
0.0137126 	-195.1 	24.3088 	-0.219246 	0
0.0142839 	-195.128 	30.0336 	-0.216837 	0
0.0148553 	-195.18 	31.2334 	-0.219245 	0
0.0154266 	-195.214 	32.109 	-0.220358 	0
0.015998 	-195.235 	32.9269 	-0.221686 	0
0.0165693 	-195.239 	33.6734 	-0.222798 	0
0.0171407 	-195.228 	34.2929 	-0.223447 	0
0.0177121 	-195.206 	34.884 	-0.224469 	0
0.0182834 	-195.167 	35.4532 	-0.225538 	0
0.0188548 	-195.117 	36.0093 	-0.226888 	0
0.0194261 	-195.054 	36.5426 	-0.228402 	0
0.0199975 	-194.979 	37.0631 	-0.230081 	0
0.0205688 	-194.893 	37.5827 	-0.232005 	0
0.0211402 	-194.795 	38.0931 	-0.23404 	0
0.0217116 	-194.687 	38.5439 	-0.23585 	0
0.0222829 	-194.568 	38.9383 	-0.237596 	0
0.0228543 	-194.44 	39.317 	-0.239366 	0
0.0234256 	-194.302 	39.6905 	-0.241163 	0
0.023997 	-194.155 	40.0635 	-0.243247 	0
0.0245683 	-193.999 	40.4265 	-0.245319 	0
0.0251397 	-193.835 	40.7829 	-0.247315 	0
0.0257111 	-193.662 	41.0947 	-0.249331 	0
0.0262824 	-193.482 	41.3992 	-0.251184 	0
0.0268538 	-193.292 	41.6787 	-0.253105 	0
0.0274251 	-193.098 	41.9583 	-0.254963 	0
0.0279965 	-192.895 	42.2386 	-0.257067 	0
0.0285678 	-192.687 	42.5182 	-0.259063 	0
0.0291392 	-192.469 	42.7944 	-0.261226 	0
0.0297106 	-192.248 	43.0706 	-0.263238 	0
0.0302819 	-192.016 	43.265 	-0.264812 	0
0.0308533 	-191.782 	43.4497 	-0.266249 	0
0.0314246 	-191.542 	43.5975 	-0.267545 	0
0.031996 	-191.298 	43.7019 	-0.268706 	0
0.0325673 	-191.052 	43.8064 	-0.269781 	0
0.0331387 	-190.798 	43.9102 	-0.270932 	0
0.0337101 	-190.543 	44.0139 	-0.272061 	0
0.0342814 	-190.287 	44.1176 	-0.273137 	0
0.0348528 	-190.02 	44.1779 	-0.273969 	0
0.0354241 	-189.754 	44.238 	-0.274767 	0
0.0359955 	-189.488 	44.2982 	-0.275529 	0
0.0365668 	-189.216 	44.3117 	-0.276047 	0
0.0371382 	-188.943 	44.3217 	-0.276531 	0
0.0377095 	-188.67 	44.3317 	-0.276979 	0
0.0382809 	-188.394 	44.3343 	-0.277385 	0
0.0388523 	-188.115 	44.3323 	-0.277763 	0
0.0394236 	-187.837 	44.3303 	-0.278109 	0
0.039995 	-187.559 	44.328 	-0.278446 	0
0.0405663 	-187.276 	44.3184 	-0.278687 	0
0.0411377 	-186.993 	44.3087 	-0.278926 	0
0.041709 	-186.712 	44.2991 	-0.27914 	0
0.0422804 	-186.429 	44.2887 	-0.279339 	0
0.0428518 	-186.143 	44.2742 	-0.279469 	0
0.0434231 	-185.857 	44.2597 	-0.279596 	0
0.0439945 	-185.573 	44.2453 	-0.279708 	0
0.0445658 	-185.288 	44.2309 	-0.279819 	0
0.0451372 	-185.001 	44.2267 	-0.279924 	0
0.0457085 	-184.713 	44.2226 	-0.280028 	0
0.0462799 	-184.426 	44.2186 	-0.280124 	0
0.0468513 	-184.14 	44.2145 	-0.280216 	0
0.0474226 	-183.852 	44.2144 	-0.280281 	0
0.047994 	-183.563 	44.2185 	-0.280317 	0
0.0485653 	-183.273 	44.2226 	-0.280352 	0
0.0491367 	-182.985 	44.2267 	-0.280382 	0
0.049708 	-182.697 	44.2308 	-0.280411 	0
0.0502794 	-182.407 	44.2333 	-0.280361 	0
0.0508508 	-182.117 	44.2347 	-0.280259 	0
0.0514221 	-181.827 	44.2362 	-0.280156 	0
0.0519935 	-181.538 	44.2376 	-0.280055 	0
0.0525648 	-181.249 	44.2391 	-0.279954 	0
0.0531362 	-180.96 	44.2399 	-0.279806 	0
0.0537075 	-180.671 	44.2395 	-0.279567 	0
0.0542789 	-180.382 	44.2391 	-0.279329 	0
0.0548503 	-180.093 	44.2387 	-0.279094 	0
0.0554216 	-179.805 	44.2383 	-0.278863 	0
0.055993 	-179.517 	44.2379 	-0.278632 	0
0.0565643 	-179.23 	44.2375 	-0.278315 	0
0.0571357 	-178.943 	44.2371 	-0.277952 	0
0.057707 	-178.656 	44.2367 	-0.277588 	0
0.0582784 	-178.37 	44.2363 	-0.277233 	0
0.0588497 	-178.084 	44.236 	-0.276882 	0
0.0594211 	-177.798 	44.2356 	-0.276532 	0
0.0599925 	-177.516 	44.235 	-0.276115 	0
0.0605638 	-177.237 	44.2341 	-0.275634 	0
0.0611352 	-176.959 	44.2333 	-0.275152 	0
0.0617065 	-176.68 	44.2324 	-0.274673 	0
0.0622779 	-176.403 	44.2315 	-0.274209 	0
0.0628492 	-176.125 	44.2307 	-0.273745 	0
0.0634206 	-175.848 	44.2298 	-0.27328 	0
0.063992 	-175.573 	44.2282 	-0.272702 	0
0.0645633 	-175.299 	44.2264 	-0.272106 	0
0.0651347 	-175.025 	44.2246 	-0.271509 	0
0.065706 	-174.752 	44.2228 	-0.270925 	0
0.0662774 	-174.479 	44.2211 	-0.27035 	0
0.0668487 	-174.206 	44.2193 	-0.269776 	0
0.0674201 	-173.933 	44.2174 	-0.269172 	0
0.0679915 	-173.659 	44.2151 	-0.268469 	0
0.0685628 	-173.386 	44.2128 	-0.267765 	0
0.0691342 	-173.113 	44.2106 	-0.267065 	0
0.0697055 	-172.84 	44.2083 	-0.266387 	0
0.0702769 	-172.568 	44.2061 	-0.265709 	0
0.0708482 	-172.296 	44.2038 	-0.265023 	0
0.0714196 	-172.028 	44.2016 	-0.264246 	0
0.071991 	-171.761 	44.1994 	-0.26347 	0
0.0725623 	-171.493 	44.1972 	-0.2627 	0
0.0731337 	-171.226 	44.195 	-0.261951 	0
0.073705 	-170.959 	44.1928 	-0.261202 	0
0.0742764 	-170.694 	44.1911 	-0.260423 	0
0.0748477 	-170.432 	44.1902 	-0.259597 	0
0.0754191 	-170.17 	44.1893 	-0.258771 	0
0.0759905 	-169.909 	44.1884 	-0.257968 	0
0.0765618 	-169.647 	44.1875 	-0.257171 	0
0.0771332 	-169.387 	44.1868 	-0.256368 	0
0.0777045 	-169.13 	44.1877 	-0.25551 	0
0.0782759 	-168.874 	44.1885 	-0.254653 	0
0.0788472 	-168.617 	44.1893 	-0.253816 	0
0.0794186 	-168.361 	44.1901 	-0.252989 	0
0.0799899 	-168.106 	44.1911 	-0.252147 	0
0.0805613 	-167.855 	44.1923 	-0.251256 	0
0.0811327 	-167.604 	44.1935 	-0.250364 	0
0.081704 	-167.353 	44.1947 	-0.249505 	0
0.0822754 	-167.102 	44.196 	-0.248646 	0
0.0828467 	-166.854 	44.1972 	-0.247751 	0
0.0834181 	-166.608 	44.1985 	-0.246844 	0
0.0839894 	-166.362 	44.1997 	-0.245959 	0
0.0845608 	-166.116 	44.201 	-0.245084 	0
0.0851322 	-165.872 	44.2023 	-0.244177 	0
0.0857035 	-165.63 	44.2036 	-0.243244 	0
0.0862749 	-165.389 	44.2049 	-0.242333 	0
0.0868462 	-165.147 	44.2062 	-0.241434 	0
0.0874176 	-164.909 	44.2075 	-0.240518 	0
0.0879889 	-164.672 	44.2089 	-0.239595 	0
0.0885603 	-164.435 	44.2102 	-0.238702 	0
0.0891317 	-164.198 	44.2116 	-0.237806 	0
0.089703 	-163.965 	44.213 	-0.236852 	0
0.0902744 	-163.732 	44.2144 	-0.235915 	0
0.0908457 	-163.5 	44.2158 	-0.234997 	0
0.0914171 	-163.27 	44.2173 	-0.234085 	0
0.0919884 	-163.041 	44.2189 	-0.233185 	0
0.0925598 	-162.813 	44.2204 	-0.232311 	0
0.0931312 	-162.587 	44.2205 	-0.231393 	0
0.0937025 	-162.361 	44.2199 	-0.230471 	0
0.0942739 	-162.136 	44.2195 	-0.229574 	0
0.0948452 	-161.915 	44.1542 	-0.228266 	0
0.0954166 	-161.693 	44.081 	-0.226935 	0
0.0959879 	-161.474 	43.986 	-0.2255 	0
0.0965593 	-161.259 	43.8292 	-0.223719 	0
0.0971307 	-161.045 	43.6725 	-0.221998 	0
0.097702 	-160.837 	43.5091 	-0.220276 	0
0.0982734 	-160.63 	43.3442 	-0.218598 	0
0.0988447 	-160.427 	43.1794 	-0.216835 	0
0.0994161 	-160.225 	43.0148 	-0.215032 	0
0.0999874 	-160.028 	42.8501 	-0.213337 	0
0.100559 	-159.834 	42.6855 	-0.211754 	0
0.10113 	-159.642 	42.521 	-0.210012 	0
0.101702 	-159.452 	42.3566 	-0.208168 	0
0.102273 	-159.267 	42.194 	-0.206656 	0
0.102844 	-159.084 	42.0249 	-0.20524 	0
0.103416 	-158.904 	41.8088 	-0.203483 	0
0.103987 	-158.727 	41.0178 	-0.198207 	0
0.104558 	-158.557 	39.648 	-0.189907 	0
0.10513 	-158.408 	37.4013 	-0.178077 	0
0.105701 	-158.281 	35.0655 	-0.165947 	0
0.106272 	-158.17 	32.7178 	-0.153811 	0
0.106844 	-158.075 	30.371 	-0.14172 	0
0.107415 	-157.995 	28.0242 	-0.129675 	0
0.107986 	-157.929 	25.6774 	-0.117675 	0
0.108558 	-157.875 	23.3306 	-0.10572 	0
0.109129 	-157.833 	20.9839 	-0.0937921 	0
0.109701 	-157.802 	18.6372 	-0.081835 	0
0.110272 	-157.778 	16.2904 	-0.0699909 	0
0.110843 	-157.762 	13.9435 	-0.0581486 	0
0.111415 	-157.752 	11.596 	-0.0462686 	0
0.111986 	-157.747 	9.24543 	-0.0342235 	0
0.112557 	-157.747 	6.8867 	-0.0212384 	0
0.113129 	-157.751 	4.59258 	-0.00929114 	0
0.1137 	-157.754 	2.29022 	-0.00431024 	0
