0.0131412 	-151.753 	20.0753 	-0.00507222 	0
0.0137126 	-151.737 	24.9642 	-0.00384448 	0
0.0142839 	-151.709 	28.9402 	0.0143945 	0
0.0148553 	-151.68 	31.9549 	0.0353206 	0
0.0154266 	-151.661 	33.5244 	0.0378501 	0
0.015998 	-151.64 	34.5054 	0.0345036 	0
0.0165693 	-151.616 	35.3275 	0.0309268 	0
0.0171407 	-151.589 	36.0406 	0.0272585 	0
0.0177121 	-151.559 	36.6735 	0.0235354 	0
0.0182834 	-151.527 	37.2479 	0.0197871 	0
0.0188548 	-151.491 	37.764 	0.0159475 	0
0.0194261 	-151.452 	38.2351 	0.0121692 	0
0.0199975 	-151.412 	38.6865 	0.00842225 	0
0.0205688 	-151.366 	39.0871 	0.00458524 	0
0.0211402 	-151.322 	39.4814 	0.000876665 	0
0.0217116 	-151.27 	39.8351 	-0.00291607 	0
0.0222829 	-151.221 	40.189 	-0.00659175 	0
0.0228543 	-151.164 	40.5045 	-0.0103027 	0
0.0234256 	-151.106 	40.8174 	-0.0140248 	0
0.023997 	-151.049 	41.1156 	-0.0175677 	0
0.0245683 	-150.984 	41.3926 	-0.0212028 	0
0.0251397 	-150.921 	41.6697 	-0.0247915 	0
0.0257111 	-150.855 	41.9303 	-0.0282507 	0
0.0262824 	-150.783 	42.1758 	-0.0317596 	0
0.0268538 	-150.711 	42.4213 	-0.0352686 	0
0.0274251 	-150.643 	42.6611 	-0.0385851 	0
0.0279965 	-150.563 	42.8788 	-0.0419642 	0
0.0285678 	-150.483 	43.0964 	-0.0453434 	0
0.0291392 	-150.405 	43.3141 	-0.0486638 	0
0.0297106 	-150.326 	43.512 	-0.0518224 	0
0.0302819 	-150.237 	43.6811 	-0.0549447 	0
0.0308533 	-150.148 	43.8502 	-0.0580671 	0
0.0314246 	-150.06 	44.0194 	-0.061177 	0
0.031996 	-149.979 	44.183 	-0.0641239 	0
0.0325673 	-149.882 	44.2458 	-0.0668977 	0
0.0331387 	-149.786 	44.3086 	-0.0696715 	0
0.0337101 	-149.69 	44.3714 	-0.0724454 	0
0.0342814 	-149.596 	44.4342 	-0.0751911 	0
0.0348528 	-149.507 	44.4933 	-0.0778327 	0
0.0354241 	-149.406 	44.49 	-0.0803064 	0
0.0359955 	-149.305 	44.4867 	-0.0827801 	0
0.0365668 	-149.204 	44.4834 	-0.0852539 	0
0.0371382 	-149.102 	44.4801 	-0.0877276 	0
0.0377095 	-149.007 	44.477 	-0.0901437 	0
0.0382809 	-148.911 	44.4737 	-0.0924682 	0
0.0388523 	-148.805 	44.4702 	-0.0946654 	0
0.0394236 	-148.7 	44.4666 	-0.0968627 	0
0.039995 	-148.595 	44.4631 	-0.09906 	0
0.0405663 	-148.49 	44.4595 	-0.101257 	0
0.0411377 	-148.388 	44.456 	-0.103436 	0
0.041709 	-148.292 	44.4527 	-0.105575 	0
0.0422804 	-148.186 	44.4495 	-0.107529 	0
0.0428518 	-148.078 	44.4463 	-0.109429 	0
0.0434231 	-147.97 	44.4432 	-0.111329 	0
0.0439945 	-147.863 	44.4401 	-0.113229 	0
0.0445658 	-147.755 	44.4369 	-0.115129 	0
0.0451372 	-147.647 	44.4338 	-0.117028 	0
0.0457085 	-147.548 	44.4308 	-0.118897 	0
0.0462799 	-147.446 	44.4279 	-0.120688 	0
0.0468513 	-147.337 	44.4252 	-0.122243 	0
0.0474226 	-147.228 	44.4224 	-0.123798 	0
0.047994 	-147.119 	44.4196 	-0.125353 	0
0.0485653 	-147.011 	44.4169 	-0.126907 	0
0.0491367 	-146.902 	44.4141 	-0.128462 	0
0.049708 	-146.793 	44.4113 	-0.130017 	0
0.0502794 	-146.689 	44.4087 	-0.131571 	0
0.0508508 	-146.589 	44.4061 	-0.133124 	0
0.0514221 	-146.485 	44.4036 	-0.134446 	0
0.0519935 	-146.377 	44.4012 	-0.135624 	0
0.0525648 	-146.27 	44.3989 	-0.136803 	0
0.0531362 	-146.162 	44.3965 	-0.137981 	0
0.0537075 	-146.055 	44.3941 	-0.139159 	0
0.0542789 	-145.947 	44.3917 	-0.140337 	0
0.0548503 	-145.84 	44.3893 	-0.141516 	0
0.0554216 	-145.733 	44.3869 	-0.142695 	0
0.055993 	-145.634 	44.3847 	-0.143902 	0
0.0565643 	-145.534 	44.3825 	-0.145109 	0
0.0571357 	-145.434 	44.3806 	-0.145994 	0
0.057707 	-145.334 	44.3787 	-0.146758 	0
0.0582784 	-145.234 	44.3768 	-0.147521 	0
0.0588497 	-145.133 	44.3749 	-0.148285 	0
0.0594211 	-145.033 	44.373 	-0.149049 	0
0.0599925 	-144.933 	44.3711 	-0.149813 	0
0.0605638 	-144.833 	44.3692 	-0.150576 	0
0.0611352 	-144.732 	44.3673 	-0.15134 	0
0.0617065 	-144.632 	44.3655 	-0.152106 	0
0.0622779 	-144.539 	44.3637 	-0.152926 	0
0.0628492 	-144.446 	44.362 	-0.153745 	0
0.0634206 	-144.353 	44.3604 	-0.154403 	0
0.063992 	-144.261 	44.359 	-0.154804 	0
0.0645633 	-144.168 	44.3577 	-0.155205 	0
0.0651347 	-144.075 	44.3563 	-0.155606 	0
0.065706 	-143.982 	44.3549 	-0.156008 	0
0.0662774 	-143.889 	44.3535 	-0.156409 	0
0.0668487 	-143.796 	44.3522 	-0.15681 	0
0.0674201 	-143.703 	44.3508 	-0.157211 	0
0.0679915 	-143.61 	44.3494 	-0.157612 	0
0.0685628 	-143.521 	44.3481 	-0.158069 	0
0.0691342 	-143.435 	44.3469 	-0.158549 	0
0.0697055 	-143.349 	44.3457 	-0.159012 	0
0.0702769 	-143.262 	44.3448 	-0.159114 	0
0.0708482 	-143.176 	44.344 	-0.159216 	0
0.0714196 	-143.09 	44.3432 	-0.159317 	0
0.071991 	-143.004 	44.3423 	-0.159419 	0
0.0725623 	-142.917 	44.3415 	-0.15952 	0
0.0731337 	-142.831 	44.3407 	-0.159622 	0
0.073705 	-142.745 	44.3398 	-0.159723 	0
0.0742764 	-142.662 	44.339 	-0.159872 	0
0.0748477 	-142.581 	44.3383 	-0.160074 	0
0.0754191 	-142.501 	44.3377 	-0.160223 	0
0.0759905 	-142.425 	44.3375 	-0.160085 	0
0.0765618 	-142.348 	44.3373 	-0.159947 	0
0.0771332 	-142.271 	44.337 	-0.159809 	0
0.0777045 	-142.194 	44.3368 	-0.159671 	0
0.0782759 	-142.117 	44.3366 	-0.159532 	0
0.0788472 	-142.04 	44.3364 	-0.159394 	0
0.0794186 	-141.966 	44.3362 	-0.159318 	0
0.0799899 	-141.895 	44.3361 	-0.159294 	0
0.0805613 	-141.825 	44.3363 	-0.159114 	0
0.0811327 	-141.757 	44.3367 	-0.158795 	0
0.081704 	-141.689 	44.3372 	-0.158476 	0
0.0822754 	-141.621 	44.3376 	-0.158157 	0
0.0828467 	-141.553 	44.3381 	-0.157838 	0
0.0834181 	-141.485 	44.3385 	-0.157519 	0
0.0839894 	-141.421 	44.339 	-0.157294 	0
0.0845608 	-141.358 	44.3396 	-0.157097 	0
0.0851322 	-141.298 	44.3408 	-0.15664 	0
0.0857035 	-141.238 	44.342 	-0.156183 	0
0.0862749 	-141.179 	44.3432 	-0.155726 	0
0.0868462 	-141.119 	44.3444 	-0.155269 	0
0.0874176 	-141.06 	44.3456 	-0.154813 	0
0.0879889 	-141.004 	44.3469 	-0.154482 	0
0.0885603 	-140.95 	44.3485 	-0.154052 	0
0.0891317 	-140.898 	44.3506 	-0.153491 	0
0.089703 	-140.846 	44.3527 	-0.15293 	0
0.0902744 	-140.794 	44.3548 	-0.152369 	0
0.0908457 	-140.742 	44.3569 	-0.151815 	0
0.0914171 	-140.694 	44.359 	-0.151388 	0
0.0919884 	-140.648 	44.3619 	-0.150809 	0
0.0925598 	-140.602 	44.365 	-0.150169 	0
0.0931312 	-140.557 	44.3681 	-0.149529 	0
0.0937025 	-140.512 	44.3713 	-0.148889 	0
0.0942739 	-140.469 	44.3745 	-0.148371 	0
0.0948452 	-140.429 	44.3785 	-0.147727 	0
0.0954166 	-140.39 	44.3829 	-0.147027 	0
0.0959879 	-140.351 	44.3873 	-0.146328 	0
0.0965593 	-140.313 	44.3917 	-0.145682 	0
0.0971307 	-140.278 	44.3967 	-0.145056 	0
0.097702 	-140.244 	44.4026 	-0.144312 	0
0.0982734 	-140.21 	44.4085 	-0.143568 	0
0.0988447 	-140.177 	44.4144 	-0.142889 	0
0.0994161 	-140.147 	44.4213 	-0.142189 	0
0.0999874 	-140.118 	44.429 	-0.141413 	0
0.100559 	-140.089 	44.4367 	-0.140641 	0
0.10113 	-140.063 	44.445 	-0.139967 	0
0.101702 	-140.038 	44.4548 	-0.139168 	0
0.102273 	-140.013 	44.4647 	-0.138375 	0
0.102844 	-139.991 	44.4754 	-0.137663 	0
0.103416 	-139.97 	44.4876 	-0.136848 	0
0.103987 	-139.949 	44.4999 	-0.136096 	0
0.104558 	-139.931 	44.5144 	-0.135297 	0
0.10513 	-139.913 	44.5293 	-0.134495 	0
0.105701 	-139.898 	44.5461 	-0.13372 	0
0.106272 	-139.883 	44.564 	-0.132915 	0
0.106844 	-139.87 	44.584 	-0.132125 	0
0.107415 	-139.857 	44.6051 	-0.131351 	0
0.107986 	-139.847 	44.6292 	-0.13052 	0
0.108558 	-139.838 	44.6552 	-0.129741 	0
0.109129 	-139.83 	44.6835 	-0.128958 	0
0.109701 	-139.823 	44.7145 	-0.128172 	0
0.110272 	-139.818 	44.7487 	-0.127383 	0
0.110843 	-139.814 	44.7864 	-0.126611 	0
0.111415 	-139.812 	44.8101 	-0.125948 	0
0.111986 	-139.808 	43.876 	-0.112301 	0
0.112557 	-139.825 	39.8007 	-0.0619269 	0
0.113129 	-139.855 	33.7275 	-0.0212992 	0
0.1137 	-139.881 	1.57342e-10 	-5.25048e-15 	0
