0 	-10.9145 	0 	0 	0
0.000571357 	-10.9536 	13.6581 	-0.0352512 	0
0.00114271 	-11.0521 	15.3879 	-0.0883816 	0
0.00171407 	-11.1732 	16.3286 	-0.141799 	0
0.00228543 	-11.2985 	17.1134 	-0.190757 	0
0.00285678 	-11.4046 	17.9048 	-0.233783 	0
0.00342814 	-11.481 	18.7883 	-0.267483 	0
0.0039995 	-11.6321 	19.6711 	-0.295602 	0
0.00457085 	-11.7581 	20.4877 	-0.32325 	0
0.00514221 	-11.8783 	21.2742 	-0.350121 	0
0.00571357 	-11.9945 	22.03 	-0.376941 	0
0.00628492 	-12.1051 	22.7615 	-0.404032 	0
0.00685628 	-12.2085 	23.4827 	-0.431283 	0
0.00742764 	-12.3048 	24.2125 	-0.458208 	0
0.00799899 	-12.3961 	24.9733 	-0.483919 	0
0.00857035 	-12.487 	25.7866 	-0.507333 	0
0.00914171 	-12.5678 	26.6872 	-0.52678 	0
0.00971307 	-12.662 	27.7488 	-0.53991 	0
0.0102844 	-12.7962 	28.8504 	-0.549044 	0
0.0108558 	-12.9331 	30.0622 	-0.553602 	0
0.0114271 	-13.0922 	31.4767 	-0.552266 	0
0.0119985 	-13.2882 	32.9136 	-0.54879 	0
0.0125698 	-13.5094 	33.4494 	-0.555832 	0
0.0131412 	-13.7554 	33.9052 	-0.564105 	0
0.0137126 	-14.008 	34.3108 	-0.571068 	0
0.0142839 	-14.2678 	34.6907 	-0.577508 	0
0.0148553 	-14.5354 	35.0601 	-0.58366 	0
0.0154266 	-14.8105 	35.4273 	-0.589665 	0
0.015998 	-15.093 	35.7938 	-0.595534 	0
0.0165693 	-15.3831 	36.1543 	-0.601184 	0
0.0171407 	-15.6802 	36.502 	-0.6065 	0
0.0177121 	-15.9843 	36.829 	-0.61132 	0
0.0182834 	-16.2943 	37.138 	-0.615722 	0
0.0188548 	-16.6114 	37.4305 	-0.619738 	0
0.0194261 	-16.9338 	37.7122 	-0.623442 	0
0.0199975 	-17.2616 	37.9885 	-0.626951 	0
0.0205688 	-17.5948 	38.2611 	-0.630295 	0
0.0211402 	-17.9332 	38.529 	-0.633459 	0
0.0217116 	-18.2761 	38.7865 	-0.636313 	0
0.0222829 	-18.6252 	39.0257 	-0.638754 	0
0.0228543 	-18.9785 	39.2436 	-0.640727 	0
0.0234256 	-19.3351 	39.4406 	-0.642251 	0
0.023997 	-19.6948 	39.5997 	-0.642971 	0
0.0245683 	-20.0582 	39.7333 	-0.64316 	0
0.0251397 	-20.4216 	39.8491 	-0.642964 	0
0.0257111 	-20.7892 	39.9354 	-0.642113 	0
0.0262824 	-21.1572 	40.0179 	-0.641157 	0
0.0268538 	-21.5252 	40.0897 	-0.639876 	0
0.0274251 	-21.8954 	40.1611 	-0.638553 	0
0.0279965 	-22.2651 	40.231 	-0.637084 	0
0.0285678 	-22.6369 	40.2993 	-0.635558 	0
0.0291392 	-23.0083 	40.3587 	-0.633698 	0
0.0297106 	-23.3796 	40.418 	-0.631837 	0
0.0302819 	-23.7534 	40.4518 	-0.629325 	0
0.0308533 	-24.1253 	40.4824 	-0.626737 	0
0.0314246 	-24.4986 	40.4991 	-0.623783 	0
0.031996 	-24.869 	40.4991 	-0.620412 	0
0.0325673 	-25.2395 	40.4991 	-0.617042 	0
0.0331387 	-25.6094 	40.4937 	-0.613379 	0
0.0337101 	-25.9766 	40.4872 	-0.609672 	0
0.0342814 	-26.3459 	40.4807 	-0.60595 	0
0.0348528 	-26.7103 	40.4873 	-0.60228 	0
0.0354241 	-27.0746 	40.4939 	-0.598612 	0
0.0359955 	-27.4394 	40.5005 	-0.59494 	0
0.0365668 	-27.8032 	40.5089 	-0.590959 	0
0.0371382 	-28.1649 	40.5173 	-0.586968 	0
0.0377095 	-28.5266 	40.5258 	-0.582977 	0
0.0382809 	-28.8883 	40.5319 	-0.57874 	0
0.0388523 	-29.2461 	40.5364 	-0.57438 	0
0.0394236 	-29.6039 	40.5409 	-0.57002 	0
0.039995 	-29.964 	40.5457 	-0.565633 	0
0.0405663 	-30.3176 	40.5584 	-0.561151 	0
0.0411377 	-30.6712 	40.5711 	-0.556669 	0
0.041709 	-31.0249 	40.5838 	-0.552187 	0
0.0422804 	-31.3804 	40.598 	-0.547648 	0
0.0428518 	-31.7303 	40.619 	-0.54297 	0
0.0434231 	-32.0802 	40.64 	-0.538292 	0
0.0439945 	-32.4301 	40.6611 	-0.533614 	0
0.0445658 	-32.7825 	40.6821 	-0.528913 	0
0.0451372 	-33.1286 	40.7019 	-0.52391 	0
0.0457085 	-33.4746 	40.7217 	-0.518907 	0
0.0462799 	-33.8206 	40.7414 	-0.513904 	0
0.0468513 	-34.1665 	40.7612 	-0.5089 	0
0.0474226 	-34.5128 	40.7784 	-0.503676 	0
0.047994 	-34.8538 	40.7928 	-0.498268 	0
0.0485653 	-35.1949 	40.8073 	-0.492859 	0
0.0491367 	-35.536 	40.8217 	-0.487451 	0
0.049708 	-35.877 	40.8361 	-0.482043 	0
0.0502794 	-36.2173 	40.85 	-0.476421 	0
0.0508508 	-36.5527 	40.8634 	-0.470708 	0
0.0514221 	-36.8881 	40.8769 	-0.464995 	0
0.0519935 	-37.2236 	40.8903 	-0.459282 	0
0.0525648 	-37.559 	40.9037 	-0.453568 	0
0.0531362 	-37.8951 	40.9176 	-0.447722 	0
0.0537075 	-38.2248 	40.932 	-0.441701 	0
0.0542789 	-38.5545 	40.9465 	-0.435681 	0
0.0548503 	-38.8842 	40.961 	-0.429661 	0
0.0554216 	-39.2139 	40.9755 	-0.423641 	0
0.055993 	-39.5436 	40.99 	-0.41762 	0
0.0565643 	-39.8721 	41.004 	-0.411362 	0
0.0571357 	-40.1958 	41.0176 	-0.405021 	0
0.057707 	-40.5196 	41.0312 	-0.398679 	0
0.0582784 	-40.8434 	41.0449 	-0.392337 	0
0.0588497 	-41.1672 	41.0585 	-0.385995 	0
0.0594211 	-41.491 	41.0721 	-0.379653 	0
0.0599925 	-41.8115 	41.0852 	-0.373183 	0
0.0605638 	-42.1237 	41.0975 	-0.36664 	0
0.0611352 	-42.4358 	41.1098 	-0.360097 	0
0.0617065 	-42.7479 	41.1222 	-0.353554 	0
0.0622779 	-43.0601 	41.1345 	-0.347011 	0
0.0628492 	-43.3722 	41.1468 	-0.340468 	0
0.0634206 	-43.6851 	41.1592 	-0.333919 	0
0.063992 	-43.9944 	41.1711 	-0.32712 	0
0.0645633 	-44.3011 	41.1829 	-0.320298 	0
0.0651347 	-44.6079 	41.1947 	-0.313477 	0
0.065706 	-44.9146 	41.2065 	-0.306655 	0
0.0662774 	-45.2214 	41.2183 	-0.299834 	0
0.0668487 	-45.5281 	41.2301 	-0.293012 	0
0.0674201 	-45.8374 	41.2421 	-0.286095 	0
0.0679915 	-46.1452 	41.2544 	-0.278903 	0
0.0685628 	-46.4529 	41.2668 	-0.271712 	0
0.0691342 	-46.7607 	41.2791 	-0.264521 	0
0.0697055 	-47.0685 	41.2915 	-0.25733 	0
0.0702769 	-47.3762 	41.3038 	-0.250138 	0
0.0708482 	-47.6857 	41.3163 	-0.242928 	0
0.0714196 	-47.9902 	41.3298 	-0.235545 	0
0.071991 	-48.2948 	41.3433 	-0.228162 	0
0.0725623 	-48.5993 	41.3569 	-0.220779 	0
0.0731337 	-48.9039 	41.3704 	-0.213396 	0
0.073705 	-49.2084 	41.3839 	-0.206013 	0
0.0742764 	-49.5138 	41.398 	-0.198574 	0
0.0748477 	-49.8164 	41.4131 	-0.191033 	0
0.0754191 	-50.119 	41.4282 	-0.183493 	0
0.0759905 	-50.4215 	41.4433 	-0.175952 	0
0.0765618 	-50.7241 	41.4584 	-0.168412 	0
0.0771332 	-51.0279 	41.4736 	-0.160872 	0
0.0777045 	-51.3297 	41.4892 	-0.153219 	0
0.0782759 	-51.6314 	41.5048 	-0.145567 	0
0.0788472 	-51.9331 	41.5204 	-0.137914 	0
0.0794186 	-52.2349 	41.536 	-0.130261 	0
0.0799899 	-52.5377 	41.5515 	-0.122607 	0
0.0805613 	-52.8394 	41.5669 	-0.114855 	0
0.0811327 	-53.1412 	41.5822 	-0.107103 	0
0.081704 	-53.4429 	41.5976 	-0.0993513 	0
0.0822754 	-53.7446 	41.6129 	-0.0915995 	0
0.0828467 	-54.0478 	41.6284 	-0.08385 	0
0.0834181 	-54.3503 	41.644 	-0.0760619 	0
0.0839894 	-54.6528 	41.6595 	-0.0682737 	0
0.0845608 	-54.9554 	41.6751 	-0.0604855 	0
0.0851322 	-55.2594 	41.6907 	-0.0527108 	0
0.0857035 	-55.5634 	41.7065 	-0.0448838 	0
0.0862749 	-55.8673 	41.7223 	-0.0370568 	0
0.0868462 	-56.1713 	41.7381 	-0.0292299 	0
0.0874176 	-56.4772 	41.7533 	-0.0214613 	0
0.0879889 	-56.7832 	41.7681 	-0.0136609 	0
0.0885603 	-57.0892 	41.7829 	-0.00586045 	0
0.0891317 	-57.3958 	41.7967 	0.00188887 	0
0.089703 	-57.7042 	41.8014 	0.00962905 	0
0.0902744 	-58.0126 	41.8061 	0.0173692 	0
0.0908457 	-58.321 	41.8109 	0.0251094 	0
0.0914171 	-58.6309 	41.7849 	0.0326129 	0
0.0919884 	-58.941 	41.751 	0.0401135 	0
0.0925598 	-59.2511 	41.7171 	0.0476141 	0
0.0931312 	-59.5607 	41.6287 	0.0547552 	0
0.0937025 	-59.87 	41.5201 	0.061819 	0
0.0942739 	-60.1793 	41.4115 	0.0688829 	0
0.0948452 	-60.4841 	41.2502 	0.0756266 	0
0.0954166 	-60.7883 	41.0826 	0.082361 	0
0.0959879 	-61.0909 	40.9174 	0.0890071 	0
0.0965593 	-61.3897 	40.7593 	0.0954706 	0
0.0971307 	-61.6885 	40.6012 	0.101934 	0
0.097702 	-61.9844 	40.4545 	0.108365 	0
0.0982734 	-62.2799 	40.3101 	0.114814 	0
0.0988447 	-62.5728 	40.1468 	0.121191 	0
0.0994161 	-62.8642 	39.9698 	0.127556 	0
0.0999874 	-63.1558 	39.7049 	0.132329 	0
0.100559 	-63.4481 	39.3507 	0.135539 	0
0.10113 	-63.7241 	38.4842 	0.144056 	0
0.101702 	-63.9883 	37.2246 	0.1566 	0
0.102273 	-64.2694 	34.9351 	0.185882 	0
0.102844 	-64.557 	32.333 	0.219023 	0
0.103416 	-64.8543 	29.5978 	0.244998 	0
0.103987 	-65.0898 	27.2435 	0.257464 	0
0.104558 	-65.2711 	25.1974 	0.259034 	0
0.10513 	-65.3949 	23.3666 	0.254371 	0
0.105701 	-65.5018 	21.5857 	0.249091 	0
0.106272 	-65.6033 	19.8294 	0.243329 	0
0.106844 	-65.6995 	18.12 	0.23662 	0
0.107415 	-65.7868 	16.4932 	0.228478 	0
0.107986 	-65.8628 	14.9716 	0.218802 	0
0.108558 	-65.9285 	13.5598 	0.207684 	0
0.109129 	-65.9893 	12.2623 	0.194942 	0
0.109701 	-66.0514 	11.106 	0.179515 	0
0.110272 	-66.1051 	10.0872 	0.161314 	0
0.110843 	-66.1302 	9.19676 	0.140597 	0
0.111415 	-66.1337 	8.38577 	0.118394 	0
0.111986 	-66.1221 	7.63061 	0.0951527 	0
0.112557 	-66.0947 	6.91023 	0.0709468 	0
0.113129 	-66.0519 	6.17915 	0.0459734 	0
0.1137 	-65.9994 	5.28338 	0.0209169 	0
