0.0131412 	-170.517 	20.9265 	-0.018811 	0
0.0137126 	-170.495 	25.1639 	-0.0426918 	0
0.0142839 	-170.424 	28.3044 	-0.0573091 	0
0.0148553 	-170.32 	31.2518 	-0.0619097 	0
0.0154266 	-170.185 	33.6253 	-0.063669 	0
0.015998 	-170.026 	34.9811 	-0.0762292 	0
0.0165693 	-169.854 	35.8469 	-0.0919679 	0
0.0171407 	-169.659 	36.5565 	-0.107558 	0
0.0177121 	-169.448 	37.1826 	-0.122549 	0
0.0182834 	-169.228 	37.7497 	-0.136899 	0
0.0188548 	-168.982 	38.2576 	-0.150918 	0
0.0194261 	-168.712 	38.72 	-0.164548 	0
0.0199975 	-168.459 	39.1634 	-0.17741 	0
0.0205688 	-168.156 	39.5547 	-0.190048 	0
0.0211402 	-167.879 	39.9407 	-0.202066 	0
0.0217116 	-167.552 	40.285 	-0.213783 	0
0.0222829 	-167.262 	40.6306 	-0.225014 	0
0.0228543 	-166.916 	40.9367 	-0.235782 	0
0.0234256 	-166.596 	41.241 	-0.246205 	0
0.023997 	-166.262 	41.5304 	-0.256265 	0
0.0245683 	-165.897 	41.7981 	-0.265928 	0
0.0251397 	-165.567 	42.067 	-0.275323 	0
0.0257111 	-165.21 	42.3188 	-0.284276 	0
0.0262824 	-164.828 	42.5553 	-0.292827 	0
0.0268538 	-164.481 	42.7928 	-0.3012 	0
0.0274251 	-164.124 	43.0241 	-0.309387 	0
0.0279965 	-163.731 	43.2321 	-0.316887 	0
0.0285678 	-163.352 	43.4406 	-0.324343 	0
0.0291392 	-162.991 	43.6496 	-0.331744 	0
0.0297106 	-162.613 	43.8371 	-0.338583 	0
0.0302819 	-162.21 	43.9937 	-0.344614 	0
0.0308533 	-161.818 	44.1508 	-0.350644 	0
0.0314246 	-161.445 	44.3086 	-0.356671 	0
0.031996 	-161.07 	44.4605 	-0.362596 	0
0.0325673 	-160.667 	44.5115 	-0.366757 	0
0.0331387 	-160.264 	44.5624 	-0.370918 	0
0.0337101 	-159.881 	44.6141 	-0.375156 	0
0.0342814 	-159.505 	44.6661 	-0.379422 	0
0.0348528 	-159.128 	44.7143 	-0.383596 	0
0.0354241 	-158.739 	44.7032 	-0.386337 	0
0.0359955 	-158.349 	44.6921 	-0.389079 	0
0.0365668 	-157.969 	44.6813 	-0.391888 	0
0.0371382 	-157.603 	44.6708 	-0.394799 	0
0.0377095 	-157.238 	44.6603 	-0.39771 	0
0.0382809 	-156.87 	44.6502 	-0.400242 	0
0.0388523 	-156.498 	44.6407 	-0.402024 	0
0.0394236 	-156.126 	44.6312 	-0.403806 	0
0.039995 	-155.76 	44.6218 	-0.405643 	0
0.0405663 	-155.409 	44.6127 	-0.407616 	0
0.0411377 	-155.057 	44.6037 	-0.40959 	0
0.041709 	-154.706 	44.5946 	-0.411563 	0
0.0422804 	-154.355 	44.586 	-0.412699 	0
0.0428518 	-154.004 	44.5774 	-0.413586 	0
0.0434231 	-153.654 	44.5688 	-0.414473 	0
0.0439945 	-153.308 	44.5604 	-0.415416 	0
0.0445658 	-152.975 	44.5522 	-0.41651 	0
0.0451372 	-152.641 	44.544 	-0.417603 	0
0.0457085 	-152.308 	44.5358 	-0.418697 	0
0.0462799 	-151.977 	44.5278 	-0.419521 	0
0.0468513 	-151.652 	44.5202 	-0.419521 	0
0.0474226 	-151.327 	44.5126 	-0.419521 	0
0.047994 	-151.002 	44.505 	-0.419521 	0
0.0485653 	-150.681 	44.4975 	-0.419572 	0
0.0491367 	-150.37 	44.4902 	-0.419789 	0
0.049708 	-150.059 	44.4829 	-0.420006 	0
0.0502794 	-149.749 	44.4756 	-0.420223 	0
0.0508508 	-149.438 	44.4683 	-0.42044 	0
0.0514221 	-149.137 	44.4615 	-0.420015 	0
0.0519935 	-148.842 	44.4549 	-0.419194 	0
0.0525648 	-148.547 	44.4483 	-0.418373 	0
0.0531362 	-148.251 	44.4417 	-0.417552 	0
0.0537075 	-147.957 	44.4351 	-0.416735 	0
0.0542789 	-147.673 	44.4288 	-0.416135 	0
0.0548503 	-147.389 	44.4225 	-0.415535 	0
0.0554216 	-147.106 	44.4162 	-0.414935 	0
0.055993 	-146.822 	44.4098 	-0.414335 	0
0.0565643 	-146.539 	44.4035 	-0.413735 	0
0.0571357 	-146.276 	44.3979 	-0.412457 	0
0.057707 	-146.021 	44.3926 	-0.410925 	0
0.0582784 	-145.765 	44.3872 	-0.409392 	0
0.0588497 	-145.51 	44.3819 	-0.40786 	0
0.0594211 	-145.255 	44.3765 	-0.406327 	0
0.0599925 	-145.004 	44.3712 	-0.404893 	0
0.0605638 	-144.758 	44.3661 	-0.403576 	0
0.0611352 	-144.512 	44.3609 	-0.402259 	0
0.0617065 	-144.266 	44.3558 	-0.400941 	0
0.0622779 	-144.02 	44.3506 	-0.399624 	0
0.0628492 	-143.774 	44.3455 	-0.398307 	0
0.0634206 	-143.537 	44.3407 	-0.396675 	0
0.063992 	-143.315 	44.3364 	-0.394542 	0
0.0645633 	-143.094 	44.3322 	-0.39241 	0
0.0651347 	-142.872 	44.3279 	-0.390277 	0
0.065706 	-142.65 	44.3237 	-0.388144 	0
0.0662774 	-142.43 	44.3195 	-0.386037 	0
0.0668487 	-142.215 	44.3154 	-0.384115 	0
0.0674201 	-142.001 	44.3113 	-0.382194 	0
0.0679915 	-141.786 	44.3072 	-0.380272 	0
0.0685628 	-141.571 	44.3031 	-0.378351 	0
0.0691342 	-141.357 	44.299 	-0.37643 	0
0.0697055 	-141.143 	44.2949 	-0.374475 	0
0.0702769 	-140.947 	44.2917 	-0.371828 	0
0.0708482 	-140.752 	44.2884 	-0.369182 	0
0.0714196 	-140.556 	44.2851 	-0.366536 	0
0.071991 	-140.36 	44.2818 	-0.363889 	0
0.0725623 	-140.167 	44.2786 	-0.361338 	0
0.0731337 	-139.977 	44.2755 	-0.358903 	0
0.073705 	-139.787 	44.2723 	-0.356467 	0
0.0742764 	-139.597 	44.2692 	-0.354032 	0
0.0748477 	-139.407 	44.266 	-0.351596 	0
0.0754191 	-139.221 	44.263 	-0.349078 	0
0.0759905 	-139.052 	44.2607 	-0.346109 	0
0.0765618 	-138.883 	44.2585 	-0.34314 	0
0.0771332 	-138.714 	44.2562 	-0.340171 	0
0.0777045 	-138.546 	44.2539 	-0.337233 	0
0.0782759 	-138.382 	44.2518 	-0.334469 	0
0.0788472 	-138.218 	44.2496 	-0.331705 	0
0.0794186 	-138.054 	44.2475 	-0.328941 	0
0.0799899 	-137.889 	44.2453 	-0.326178 	0
0.0805613 	-137.735 	44.2436 	-0.323184 	0
0.0811327 	-137.589 	44.2423 	-0.319985 	0
0.081704 	-137.443 	44.241 	-0.316786 	0
0.0822754 	-137.297 	44.2398 	-0.313593 	0
0.0828467 	-137.155 	44.2386 	-0.310595 	0
0.0834181 	-137.013 	44.2374 	-0.307596 	0
0.0839894 	-136.871 	44.2362 	-0.304597 	0
0.0845608 	-136.729 	44.235 	-0.301598 	0
0.0851322 	-136.602 	44.2348 	-0.298233 	0
0.0857035 	-136.476 	44.2345 	-0.294869 	0
0.0862749 	-136.349 	44.2342 	-0.291505 	0
0.0868462 	-136.226 	44.234 	-0.288327 	0
0.0874176 	-136.103 	44.2339 	-0.285159 	0
0.0879889 	-135.98 	44.2337 	-0.281991 	0
0.0885603 	-135.862 	44.2339 	-0.278684 	0
0.0891317 	-135.752 	44.2348 	-0.2752 	0
0.089703 	-135.643 	44.2356 	-0.271715 	0
0.0902744 	-135.535 	44.2365 	-0.268381 	0
0.0908457 	-135.428 	44.2374 	-0.26509 	0
0.0914171 	-135.321 	44.2383 	-0.261798 	0
0.0919884 	-135.222 	44.24 	-0.258306 	0
0.0925598 	-135.126 	44.2421 	-0.254734 	0
0.0931312 	-135.032 	44.2442 	-0.251237 	0
0.0937025 	-134.939 	44.2463 	-0.247855 	0
0.0942739 	-134.846 	44.2484 	-0.244473 	0
0.0948452 	-134.76 	44.2515 	-0.240908 	0
0.0954166 	-134.676 	44.255 	-0.237272 	0
0.0959879 	-134.595 	44.2585 	-0.233767 	0
0.0965593 	-134.513 	44.262 	-0.23032 	0
0.0971307 	-134.435 	44.2662 	-0.226787 	0
0.097702 	-134.363 	44.2713 	-0.223105 	0
0.0982734 	-134.291 	44.2765 	-0.219535 	0
0.0988447 	-134.221 	44.2817 	-0.21604 	0
0.0994161 	-134.154 	44.2879 	-0.212421 	0
0.0999874 	-134.091 	44.295 	-0.208712 	0
0.100559 	-134.029 	44.3021 	-0.205183 	0
0.10113 	-133.969 	44.3098 	-0.201603 	0
0.101702 	-133.913 	44.3192 	-0.197867 	0
0.102273 	-133.859 	44.3285 	-0.194299 	0
0.102844 	-133.807 	44.3388 	-0.190676 	0
0.103416 	-133.759 	44.3507 	-0.186962 	0
0.103987 	-133.712 	44.3626 	-0.183395 	0
0.104558 	-133.669 	44.3768 	-0.179669 	0
0.10513 	-133.627 	44.3915 	-0.176062 	0
0.105701 	-133.588 	44.4081 	-0.172369 	0
0.106272 	-133.552 	44.4259 	-0.168746 	0
0.106844 	-133.518 	44.4459 	-0.165036 	0
0.107415 	-133.487 	44.4669 	-0.161438 	0
0.107986 	-133.458 	44.4911 	-0.157749 	0
0.108558 	-133.432 	44.5172 	-0.154074 	0
0.109129 	-133.408 	44.5457 	-0.15044 	0
0.109701 	-133.387 	44.5771 	-0.146792 	0
0.110272 	-133.368 	44.6101 	-0.143214 	0
0.110843 	-133.351 	44.5655 	-0.138974 	0
0.111415 	-133.334 	43.8198 	-0.125159 	0
0.111986 	-133.332 	41.0294 	-0.0841018 	0
0.112557 	-133.341 	37.1527 	-0.0458065 	0
0.113129 	-133.362 	32.0276 	-0.0179369 	0
0.1137 	-133.383 	1.43778e-10 	-4.64537e-15 	0
