0.0131412 	-161.479 	20.4903 	-0.0103728 	0
0.0137126 	-161.467 	24.8919 	-0.0216587 	0
0.0142839 	-161.43 	28.2821 	-0.0218777 	0
0.0148553 	-161.379 	31.3619 	-0.012299 	0
0.0154266 	-161.322 	33.5739 	-0.00616592 	0
0.015998 	-161.263 	34.745 	-0.0128279 	0
0.0165693 	-161.195 	35.5841 	-0.0218487 	0
0.0171407 	-161.119 	36.2981 	-0.0307756 	0
0.0177121 	-161.033 	36.9302 	-0.0396171 	0
0.0182834 	-160.94 	37.5031 	-0.0483543 	0
0.0188548 	-160.84 	38.0172 	-0.0568282 	0
0.0194261 	-160.728 	38.486 	-0.0652571 	0
0.0199975 	-160.614 	38.9349 	-0.0735301 	0
0.0205688 	-160.486 	39.3325 	-0.0816114 	0
0.0211402 	-160.356 	39.7239 	-0.0896364 	0
0.0217116 	-160.214 	40.0745 	-0.0973791 	0
0.0222829 	-160.074 	40.4253 	-0.105069 	0
0.0228543 	-159.914 	40.7374 	-0.11255 	0
0.0234256 	-159.758 	41.0471 	-0.119879 	0
0.023997 	-159.59 	41.3417 	-0.127171 	0
0.0245683 	-159.418 	41.6154 	-0.134102 	0
0.0251397 	-159.246 	41.889 	-0.141033 	0
0.0257111 	-159.058 	42.1459 	-0.147831 	0
0.0262824 	-158.869 	42.388 	-0.154273 	0
0.0268538 	-158.68 	42.63 	-0.160715 	0
0.0274251 	-158.483 	42.866 	-0.167116 	0
0.0279965 	-158.274 	43.0797 	-0.173125 	0
0.0285678 	-158.068 	43.2934 	-0.179079 	0
0.0291392 	-157.863 	43.5072 	-0.185034 	0
0.0297106 	-157.642 	43.7001 	-0.190748 	0
0.0302819 	-157.419 	43.8637 	-0.195922 	0
0.0308533 	-157.197 	44.0274 	-0.201087 	0
0.0314246 	-156.975 	44.1911 	-0.206251 	0
0.031996 	-156.751 	44.349 	-0.211363 	0
0.0325673 	-156.508 	44.4061 	-0.215502 	0
0.0331387 	-156.274 	44.4636 	-0.219595 	0
0.0337101 	-156.041 	44.5211 	-0.223689 	0
0.0342814 	-155.807 	44.5786 	-0.227782 	0
0.0348528 	-155.572 	44.6321 	-0.231824 	0
0.0354241 	-155.325 	44.6249 	-0.235048 	0
0.0359955 	-155.088 	44.618 	-0.238262 	0
0.0365668 	-154.851 	44.611 	-0.241476 	0
0.0371382 	-154.614 	44.6041 	-0.244691 	0
0.0377095 	-154.377 	44.5972 	-0.247905 	0
0.0382809 	-154.134 	44.5902 	-0.250881 	0
0.0388523 	-153.891 	44.5836 	-0.253403 	0
0.0394236 	-153.654 	44.5771 	-0.255937 	0
0.039995 	-153.418 	44.5706 	-0.258471 	0
0.0405663 	-153.181 	44.5641 	-0.261005 	0
0.0411377 	-152.944 	44.5576 	-0.263538 	0
0.041709 	-152.708 	44.5511 	-0.266072 	0
0.0422804 	-152.462 	44.5447 	-0.268025 	0
0.0428518 	-152.229 	44.5388 	-0.269878 	0
0.0434231 	-151.996 	44.5328 	-0.271732 	0
0.0439945 	-151.763 	44.5269 	-0.273586 	0
0.0445658 	-151.53 	44.521 	-0.27544 	0
0.0451372 	-151.297 	44.515 	-0.277295 	0
0.0457085 	-151.064 	44.5091 	-0.279149 	0
0.0462799 	-150.83 	44.5032 	-0.2808 	0
0.0468513 	-150.596 	44.4977 	-0.281868 	0
0.0474226 	-150.372 	44.4923 	-0.283008 	0
0.047994 	-150.147 	44.4869 	-0.284149 	0
0.0485653 	-149.923 	44.4816 	-0.285289 	0
0.0491367 	-149.698 	44.4762 	-0.286429 	0
0.049708 	-149.474 	44.4708 	-0.287569 	0
0.0502794 	-149.25 	44.4655 	-0.288709 	0
0.0508508 	-149.025 	44.4601 	-0.289849 	0
0.0514221 	-148.801 	44.455 	-0.290469 	0
0.0519935 	-148.585 	44.4502 	-0.290848 	0
0.0525648 	-148.373 	44.4454 	-0.291283 	0
0.0531362 	-148.162 	44.4407 	-0.291719 	0
0.0537075 	-147.95 	44.436 	-0.292155 	0
0.0542789 	-147.739 	44.4313 	-0.292591 	0
0.0548503 	-147.527 	44.4266 	-0.293027 	0
0.0554216 	-147.316 	44.4219 	-0.293463 	0
0.055993 	-147.104 	44.4171 	-0.293899 	0
0.0565643 	-146.892 	44.4124 	-0.294335 	0
0.0571357 	-146.69 	44.4082 	-0.294171 	0
0.057707 	-146.497 	44.4042 	-0.293865 	0
0.0582784 	-146.308 	44.4003 	-0.29363 	0
0.0588497 	-146.119 	44.3964 	-0.293395 	0
0.0594211 	-145.931 	44.3926 	-0.29316 	0
0.0599925 	-145.742 	44.3887 	-0.292925 	0
0.0605638 	-145.553 	44.3848 	-0.29269 	0
0.0611352 	-145.364 	44.381 	-0.292455 	0
0.0617065 	-145.175 	44.3771 	-0.29222 	0
0.0622779 	-144.986 	44.3732 	-0.291984 	0
0.0628492 	-144.797 	44.3693 	-0.291749 	0
0.0634206 	-144.613 	44.3657 	-0.29123 	0
0.063992 	-144.439 	44.3625 	-0.290292 	0
0.0645633 	-144.27 	44.3594 	-0.289486 	0
0.0651347 	-144.102 	44.3564 	-0.288681 	0
0.065706 	-143.933 	44.3533 	-0.287876 	0
0.0662774 	-143.765 	44.3502 	-0.287071 	0
0.0668487 	-143.596 	44.3472 	-0.286266 	0
0.0674201 	-143.428 	44.3441 	-0.28546 	0
0.0679915 	-143.259 	44.341 	-0.284655 	0
0.0685628 	-143.091 	44.338 	-0.28385 	0
0.0691342 	-142.922 	44.3349 	-0.283045 	0
0.0697055 	-142.754 	44.3318 	-0.282209 	0
0.0702769 	-142.596 	44.3294 	-0.280753 	0
0.0708482 	-142.444 	44.3271 	-0.279472 	0
0.0714196 	-142.292 	44.3248 	-0.278191 	0
0.071991 	-142.14 	44.3225 	-0.27691 	0
0.0725623 	-141.988 	44.3202 	-0.275629 	0
0.0731337 	-141.837 	44.3179 	-0.274348 	0
0.073705 	-141.685 	44.3156 	-0.273067 	0
0.0742764 	-141.533 	44.3133 	-0.271786 	0
0.0748477 	-141.381 	44.311 	-0.270505 	0
0.0754191 	-141.231 	44.3088 	-0.269145 	0
0.0759905 	-141.095 	44.3072 	-0.267397 	0
0.0765618 	-140.962 	44.3057 	-0.265784 	0
0.0771332 	-140.829 	44.3043 	-0.264171 	0
0.0777045 	-140.696 	44.3028 	-0.262558 	0
0.0782759 	-140.564 	44.3013 	-0.260945 	0
0.0788472 	-140.431 	44.2999 	-0.259332 	0
0.0794186 	-140.298 	44.2984 	-0.257719 	0
0.0799899 	-140.165 	44.2969 	-0.256106 	0
0.0805613 	-140.039 	44.2959 	-0.25427 	0
0.0811327 	-139.922 	44.2952 	-0.252368 	0
0.081704 	-139.806 	44.2946 	-0.250513 	0
0.0822754 	-139.69 	44.294 	-0.248658 	0
0.0828467 	-139.574 	44.2934 	-0.246803 	0
0.0834181 	-139.458 	44.2928 	-0.244948 	0
0.0839894 	-139.343 	44.2922 	-0.243093 	0
0.0845608 	-139.227 	44.2915 	-0.241237 	0
0.0851322 	-139.123 	44.2918 	-0.239079 	0
0.0857035 	-139.022 	44.2921 	-0.237045 	0
0.0862749 	-138.921 	44.2924 	-0.235012 	0
0.0868462 	-138.82 	44.2927 	-0.232979 	0
0.0874176 	-138.719 	44.2929 	-0.230945 	0
0.0879889 	-138.618 	44.2932 	-0.228912 	0
0.0885603 	-138.521 	44.2939 	-0.226741 	0
0.0891317 	-138.432 	44.2952 	-0.224547 	0
0.089703 	-138.344 	44.2965 	-0.222382 	0
0.0902744 	-138.256 	44.2978 	-0.220217 	0
0.0908457 	-138.168 	44.2991 	-0.218051 	0
0.0914171 	-138.08 	44.3004 	-0.215886 	0
0.0919884 	-137.998 	44.3025 	-0.213556 	0
0.0925598 	-137.922 	44.305 	-0.211293 	0
0.0931312 	-137.845 	44.3075 	-0.20903 	0
0.0937025 	-137.768 	44.3099 	-0.206767 	0
0.0942739 	-137.691 	44.3124 	-0.204504 	0
0.0948452 	-137.621 	44.3158 	-0.202106 	0
0.0954166 	-137.554 	44.3196 	-0.199771 	0
0.0959879 	-137.487 	44.3234 	-0.197436 	0
0.0965593 	-137.42 	44.3272 	-0.195101 	0
0.0971307 	-137.355 	44.3316 	-0.19268 	0
0.097702 	-137.297 	44.337 	-0.190286 	0
0.0982734 	-137.239 	44.3425 	-0.187898 	0
0.0988447 	-137.181 	44.3479 	-0.185509 	0
0.0994161 	-137.126 	44.3544 	-0.183037 	0
0.0999874 	-137.075 	44.3617 	-0.18061 	0
0.100559 	-137.025 	44.369 	-0.178184 	0
0.10113 	-136.975 	44.3768 	-0.175705 	0
0.101702 	-136.931 	44.3863 	-0.173243 	0
0.102273 	-136.886 	44.3958 	-0.17079 	0
0.102844 	-136.844 	44.4062 	-0.168282 	0
0.103416 	-136.805 	44.4183 	-0.165811 	0
0.103987 	-136.767 	44.4303 	-0.16334 	0
0.104558 	-136.732 	44.4446 	-0.160818 	0
0.10513 	-136.699 	44.4593 	-0.158335 	0
0.105701 	-136.668 	44.476 	-0.155813 	0
0.106272 	-136.639 	44.4938 	-0.153325 	0
0.106844 	-136.612 	44.5138 	-0.150804 	0
0.107415 	-136.587 	44.5349 	-0.148305 	0
0.107986 	-136.564 	44.559 	-0.145796 	0
0.108558 	-136.544 	44.5851 	-0.143283 	0
0.109129 	-136.525 	44.6135 	-0.140777 	0
0.109701 	-136.509 	44.6447 	-0.138283 	0
0.110272 	-136.495 	44.6792 	-0.135776 	0
0.110843 	-136.483 	44.7007 	-0.133413 	0
0.111415 	-136.47 	44.3738 	-0.126724 	0
0.111986 	-136.468 	41.9824 	-0.0906205 	0
0.112557 	-136.48 	37.9195 	-0.048545 	0
0.113129 	-136.503 	32.5469 	-0.0182662 	0
0.1137 	-136.524 	1.46779e-10 	-4.64172e-15 	0
