0.0131412 	-166.599 	20.9109 	-0.0182584 	0
0.0137126 	-166.579 	25.1503 	-0.0414436 	0
0.0142839 	-166.51 	28.2919 	-0.0554216 	0
0.0148553 	-166.41 	31.2407 	-0.0594288 	0
0.0154266 	-166.281 	33.6152 	-0.0606677 	0
0.015998 	-166.13 	34.9715 	-0.0727705 	0
0.0165693 	-165.965 	35.8378 	-0.0881069 	0
0.0171407 	-165.779 	36.5478 	-0.103322 	0
0.0177121 	-165.578 	37.1743 	-0.117966 	0
0.0182834 	-165.367 	37.7418 	-0.131998 	0
0.0188548 	-165.134 	38.2501 	-0.145718 	0
0.0194261 	-164.875 	38.7129 	-0.15907 	0
0.0199975 	-164.634 	39.1567 	-0.171685 	0
0.0205688 	-164.345 	39.5484 	-0.184097 	0
0.0211402 	-164.08 	39.9348 	-0.19591 	0
0.0217116 	-163.769 	40.2796 	-0.20745 	0
0.0222829 	-163.491 	40.6255 	-0.218515 	0
0.0228543 	-163.161 	40.9321 	-0.229156 	0
0.0234256 	-162.855 	41.2368 	-0.239457 	0
0.023997 	-162.535 	41.5265 	-0.249419 	0
0.0245683 	-162.187 	41.7947 	-0.259015 	0
0.0251397 	-161.871 	42.0639 	-0.268338 	0
0.0257111 	-161.529 	42.3161 	-0.277253 	0
0.0262824 	-161.163 	42.553 	-0.285796 	0
0.0268538 	-160.831 	42.7908 	-0.294147 	0
0.0274251 	-160.489 	43.0224 	-0.302327 	0
0.0279965 	-160.111 	43.2308 	-0.309877 	0
0.0285678 	-159.747 	43.4396 	-0.317373 	0
0.0291392 	-159.401 	43.649 	-0.324803 	0
0.0297106 	-159.037 	43.8368 	-0.331702 	0
0.0302819 	-158.649 	43.9937 	-0.337838 	0
0.0308533 	-158.272 	44.1511 	-0.343962 	0
0.0314246 	-157.913 	44.3092 	-0.350067 	0
0.031996 	-157.552 	44.4614 	-0.356075 	0
0.0325673 	-157.163 	44.5126 	-0.360384 	0
0.0331387 	-156.773 	44.5638 	-0.364693 	0
0.0337101 	-156.403 	44.6157 	-0.369059 	0
0.0342814 	-156.04 	44.668 	-0.373444 	0
0.0348528 	-155.676 	44.7163 	-0.377741 	0
0.0354241 	-155.298 	44.7055 	-0.380666 	0
0.0359955 	-154.92 	44.6946 	-0.383591 	0
0.0365668 	-154.552 	44.6839 	-0.386572 	0
0.0371382 	-154.197 	44.6736 	-0.389636 	0
0.0377095 	-153.842 	44.6634 	-0.3927 	0
0.0382809 	-153.485 	44.6534 	-0.395404 	0
0.0388523 	-153.122 	44.6441 	-0.397393 	0
0.0394236 	-152.76 	44.6347 	-0.399382 	0
0.039995 	-152.404 	44.6255 	-0.401417 	0
0.0405663 	-152.061 	44.6166 	-0.403569 	0
0.0411377 	-151.718 	44.6077 	-0.405721 	0
0.041709 	-151.376 	44.5988 	-0.407873 	0
0.0422804 	-151.033 	44.5902 	-0.409215 	0
0.0428518 	-150.689 	44.5817 	-0.410317 	0
0.0434231 	-150.346 	44.5733 	-0.411419 	0
0.0439945 	-150.007 	44.5649 	-0.412571 	0
0.0445658 	-149.68 	44.5568 	-0.413853 	0
0.0451372 	-149.354 	44.5487 	-0.415136 	0
0.0457085 	-149.027 	44.5407 	-0.416419 	0
0.0462799 	-148.702 	44.5327 	-0.417437 	0
0.0468513 	-148.382 	44.5251 	-0.417646 	0
0.0474226 	-148.062 	44.5176 	-0.417855 	0
0.047994 	-147.741 	44.51 	-0.418064 	0
0.0485653 	-147.425 	44.5025 	-0.418319 	0
0.0491367 	-147.118 	44.4953 	-0.418722 	0
0.049708 	-146.812 	44.488 	-0.419126 	0
0.0502794 	-146.506 	44.4808 	-0.41953 	0
0.0508508 	-146.2 	44.4735 	-0.419934 	0
0.0514221 	-145.902 	44.4667 	-0.419695 	0
0.0519935 	-145.609 	44.4601 	-0.419061 	0
0.0525648 	-145.316 	44.4534 	-0.418426 	0
0.0531362 	-145.023 	44.4468 	-0.417791 	0
0.0537075 	-144.73 	44.4402 	-0.417161 	0
0.0542789 	-144.449 	44.4339 	-0.41673 	0
0.0548503 	-144.168 	44.4276 	-0.416299 	0
0.0554216 	-143.887 	44.4212 	-0.415868 	0
0.055993 	-143.605 	44.4149 	-0.415437 	0
0.0565643 	-143.324 	44.4085 	-0.415006 	0
0.0571357 	-143.062 	44.4029 	-0.413881 	0
0.057707 	-142.807 	44.3974 	-0.412494 	0
0.0582784 	-142.552 	44.392 	-0.411107 	0
0.0588497 	-142.297 	44.3866 	-0.40972 	0
0.0594211 	-142.042 	44.3812 	-0.408334 	0
0.0599925 	-141.791 	44.3759 	-0.40704 	0
0.0605638 	-141.545 	44.3707 	-0.405857 	0
0.0611352 	-141.299 	44.3654 	-0.404674 	0
0.0617065 	-141.054 	44.3602 	-0.403491 	0
0.0622779 	-140.808 	44.355 	-0.402308 	0
0.0628492 	-140.562 	44.3498 	-0.401125 	0
0.0634206 	-140.325 	44.345 	-0.399614 	0
0.063992 	-140.102 	44.3406 	-0.397584 	0
0.0645633 	-139.879 	44.3362 	-0.395553 	0
0.0651347 	-139.656 	44.3319 	-0.393522 	0
0.065706 	-139.433 	44.3275 	-0.391491 	0
0.0662774 	-139.211 	44.3232 	-0.389484 	0
0.0668487 	-138.995 	44.319 	-0.387658 	0
0.0674201 	-138.779 	44.3148 	-0.385832 	0
0.0679915 	-138.564 	44.3107 	-0.384006 	0
0.0685628 	-138.348 	44.3065 	-0.38218 	0
0.0691342 	-138.132 	44.3023 	-0.380353 	0
0.0697055 	-137.917 	44.2981 	-0.378492 	0
0.0702769 	-137.719 	44.2948 	-0.375906 	0
0.0708482 	-137.521 	44.2914 	-0.37332 	0
0.0714196 	-137.323 	44.288 	-0.370734 	0
0.071991 	-137.125 	44.2846 	-0.368148 	0
0.0725623 	-136.929 	44.2812 	-0.365656 	0
0.0731337 	-136.737 	44.278 	-0.363278 	0
0.073705 	-136.545 	44.2747 	-0.360901 	0
0.0742764 	-136.353 	44.2714 	-0.358523 	0
0.0748477 	-136.161 	44.2682 	-0.356145 	0
0.0754191 	-135.972 	44.2651 	-0.353679 	0
0.0759905 	-135.8 	44.2627 	-0.350733 	0
0.0765618 	-135.629 	44.2603 	-0.347787 	0
0.0771332 	-135.457 	44.2579 	-0.344841 	0
0.0777045 	-135.286 	44.2555 	-0.341925 	0
0.0782759 	-135.119 	44.2532 	-0.339185 	0
0.0788472 	-134.952 	44.251 	-0.336445 	0
0.0794186 	-134.786 	44.2487 	-0.333704 	0
0.0799899 	-134.619 	44.2464 	-0.330964 	0
0.0805613 	-134.462 	44.2446 	-0.327978 	0
0.0811327 	-134.313 	44.2432 	-0.324771 	0
0.081704 	-134.164 	44.2418 	-0.321564 	0
0.0822754 	-134.015 	44.2404 	-0.318364 	0
0.0828467 	-133.87 	44.2391 	-0.31536 	0
0.0834181 	-133.725 	44.2378 	-0.312357 	0
0.0839894 	-133.58 	44.2365 	-0.309354 	0
0.0845608 	-133.435 	44.2352 	-0.306349 	0
0.0851322 	-133.305 	44.2348 	-0.302953 	0
0.0857035 	-133.176 	44.2345 	-0.299556 	0
0.0862749 	-133.046 	44.2341 	-0.29616 	0
0.0868462 	-132.92 	44.2338 	-0.292955 	0
0.0874176 	-132.794 	44.2335 	-0.28976 	0
0.0879889 	-132.668 	44.2332 	-0.286564 	0
0.0885603 	-132.548 	44.2333 	-0.28322 	0
0.0891317 	-132.435 	44.2341 	-0.279684 	0
0.089703 	-132.322 	44.2348 	-0.276148 	0
0.0902744 	-132.211 	44.2356 	-0.272767 	0
0.0908457 	-132.102 	44.2364 	-0.26943 	0
0.0914171 	-131.992 	44.2372 	-0.266093 	0
0.0919884 	-131.89 	44.2388 	-0.26254 	0
0.0925598 	-131.792 	44.2408 	-0.258901 	0
0.0931312 	-131.694 	44.2427 	-0.25534 	0
0.0937025 	-131.599 	44.2448 	-0.251898 	0
0.0942739 	-131.503 	44.2468 	-0.248456 	0
0.0948452 	-131.414 	44.2498 	-0.244818 	0
0.0954166 	-131.328 	44.2532 	-0.241103 	0
0.0959879 	-131.244 	44.2566 	-0.237525 	0
0.0965593 	-131.16 	44.2601 	-0.234006 	0
0.0971307 	-131.08 	44.2641 	-0.230396 	0
0.097702 	-131.005 	44.2692 	-0.226626 	0
0.0982734 	-130.931 	44.2743 	-0.222972 	0
0.0988447 	-130.858 	44.2794 	-0.219397 	0
0.0994161 	-130.789 	44.2856 	-0.215689 	0
0.0999874 	-130.724 	44.2926 	-0.211884 	0
0.100559 	-130.66 	44.2996 	-0.208269 	0
0.10113 	-130.598 	44.3072 	-0.204597 	0
0.101702 	-130.54 	44.3165 	-0.20076 	0
0.102273 	-130.484 	44.3258 	-0.197098 	0
0.102844 	-130.431 	44.336 	-0.193378 	0
0.103416 	-130.381 	44.3478 	-0.189558 	0
0.103987 	-130.332 	44.3597 	-0.185895 	0
0.104558 	-130.287 	44.3739 	-0.182061 	0
0.10513 	-130.244 	44.3885 	-0.178352 	0
0.105701 	-130.204 	44.4051 	-0.174551 	0
0.106272 	-130.166 	44.4228 	-0.170822 	0
0.106844 	-130.131 	44.4427 	-0.167001 	0
0.107415 	-130.098 	44.4638 	-0.163297 	0
0.107986 	-130.068 	44.4879 	-0.159494 	0
0.108558 	-130.041 	44.514 	-0.155706 	0
0.109129 	-130.016 	44.5424 	-0.151961 	0
0.109701 	-129.993 	44.5738 	-0.148199 	0
0.110272 	-129.974 	44.6067 	-0.144506 	0
0.110843 	-129.956 	44.5615 	-0.140142 	0
0.111415 	-129.938 	43.8135 	-0.126138 	0
0.111986 	-129.935 	41.0214 	-0.08483 	0
0.112557 	-129.944 	37.1444 	-0.0462864 	0
0.113129 	-129.965 	32.0189 	-0.0181643 	0
0.1137 	-129.986 	1.43709e-10 	-4.71141e-15 	0
