0 	-35.6448 	0 	0 	0
0.000571357 	-36.0363 	-0.463381 	-0.119725 	0
0.00114271 	-36.7104 	0.474002 	-0.269108 	0
0.00171407 	-37.3704 	1.40702 	-0.421169 	0
0.00228543 	-37.9807 	2.3621 	-0.573071 	0
0.00285678 	-38.5401 	3.34686 	-0.723686 	0
0.00342814 	-39.0492 	4.3679 	-0.872727 	0
0.0039995 	-39.5115 	5.43018 	-1.02028 	0
0.00457085 	-39.9278 	6.54238 	-1.16632 	0
0.00514221 	-40.3037 	7.71178 	-1.31099 	0
0.00571357 	-40.6419 	8.94835 	-1.45432 	0
0.00628492 	-40.9536 	10.2584 	-1.59663 	0
0.00685628 	-41.1668 	11.6583 	-1.73734 	0
0.00742764 	-41.2587 	13.2055 	-1.87705 	0
0.00799899 	-41.3754 	14.9402 	-2.01536 	0
0.00857035 	-41.5356 	16.8159 	-2.15238 	0
0.00914171 	-41.7224 	18.8215 	-2.28802 	0
0.00971307 	-41.9323 	20.8948 	-2.4208 	0
0.0102844 	-42.1735 	22.9649 	-2.54623 	0
0.0108558 	-42.4082 	25.0031 	-2.66378 	0
0.0114271 	-42.6185 	27.0704 	-2.77407 	0
0.0119985 	-42.7963 	29.3333 	-2.88024 	0
0.0125698 	-42.966 	31.4467 	-2.96843 	0
0.0131412 	-43.5534 	34.0369 	-3.0725 	0
0.0137126 	-43.9783 	35.0133 	-3.10981 	0
0.0142839 	-44.3989 	35.5327 	-3.11402 	0
0.0148553 	-44.7909 	35.9902 	-3.11386 	0
0.0154266 	-45.1655 	36.3923 	-3.10862 	0
0.015998 	-45.5159 	36.7813 	-3.10253 	0
0.0165693 	-45.8565 	37.1625 	-3.09588 	0
0.0171407 	-46.1886 	37.5182 	-3.08722 	0
0.0177121 	-46.5138 	37.8536 	-3.07722 	0
0.0182834 	-46.8341 	38.1767 	-3.06653 	0
0.0188548 	-47.125 	38.4868 	-3.05466 	0
0.0194261 	-47.4315 	38.7809 	-3.04225 	0
0.0199975 	-47.7188 	39.0693 	-3.02927 	0
0.0205688 	-48.0056 	39.3397 	-3.01555 	0
0.0211402 	-48.2926 	39.6076 	-3.00175 	0
0.0217116 	-48.5579 	39.8589 	-2.98704 	0
0.0222829 	-48.813 	40.1107 	-2.97218 	0
0.0228543 	-49.0908 	40.3427 	-2.95706 	0
0.0234256 	-49.3321 	40.5747 	-2.94143 	0
0.023997 	-49.6079 	40.7945 	-2.92587 	0
0.0245683 	-49.8345 	41.0016 	-2.90931 	0
0.0251397 	-50.0611 	41.2088 	-2.89274 	0
0.0257111 	-50.3252 	41.3925 	-2.87561 	0
0.0262824 	-50.5357 	41.5617 	-2.85718 	0
0.0268538 	-50.7462 	41.7309 	-2.83875 	0
0.0274251 	-50.9841 	41.8844 	-2.81988 	0
0.0279965 	-51.1971 	41.9914 	-2.79842 	0
0.0285678 	-51.39 	42.1003 	-2.77682 	0
0.0291392 	-51.583 	42.2092 	-2.75521 	0
0.0297106 	-51.8237 	42.2834 	-2.73234 	0
0.0302819 	-51.9965 	42.3173 	-2.7064 	0
0.0308533 	-52.1692 	42.3512 	-2.68046 	0
0.0314246 	-52.3419 	42.3851 	-2.65452 	0
0.031996 	-52.5208 	42.4164 	-2.62858 	0
0.0325673 	-52.7251 	42.4016 	-2.60152 	0
0.0331387 	-52.8763 	42.3868 	-2.57375 	0
0.0337101 	-53.0274 	42.372 	-2.54599 	0
0.0342814 	-53.1785 	42.3572 	-2.51822 	0
0.0348528 	-53.3359 	42.3431 	-2.49068 	0
0.0354241 	-53.5229 	42.3385 	-2.46574 	0
0.0359955 	-53.6528 	42.3317 	-2.43997 	0
0.0365668 	-53.7827 	42.325 	-2.4142 	0
0.0371382 	-53.9126 	42.3182 	-2.38843 	0
0.0377095 	-54.0425 	42.3114 	-2.36266 	0
0.0382809 	-54.2042 	42.3094 	-2.33802 	0
0.0388523 	-54.3438 	42.3144 	-2.31453 	0
0.0394236 	-54.4536 	42.3186 	-2.29065 	0
0.039995 	-54.5634 	42.3229 	-2.26677 	0
0.0405663 	-54.6731 	42.3271 	-2.24289 	0
0.0411377 	-54.7829 	42.3313 	-2.21901 	0
0.041709 	-54.8927 	42.3356 	-2.19513 	0
0.0422804 	-55.0593 	42.3381 	-2.17299 	0
0.0428518 	-55.1505 	42.3381 	-2.15027 	0
0.0434231 	-55.2416 	42.3381 	-2.12755 	0
0.0439945 	-55.3328 	42.3381 	-2.10483 	0
0.0445658 	-55.4239 	42.3381 	-2.08211 	0
0.0451372 	-55.5151 	42.3381 	-2.05939 	0
0.0457085 	-55.6062 	42.3381 	-2.03667 	0
0.0462799 	-55.7159 	42.3388 	-2.01456 	0
0.0468513 	-55.8395 	42.3407 	-1.99387 	0
0.0474226 	-55.9132 	42.3414 	-1.97263 	0
0.047994 	-55.9869 	42.3422 	-1.95138 	0
0.0485653 	-56.0605 	42.3429 	-1.93014 	0
0.0491367 	-56.1342 	42.3436 	-1.90889 	0
0.049708 	-56.2079 	42.3443 	-1.88765 	0
0.0502794 	-56.2816 	42.3451 	-1.8664 	0
0.0508508 	-56.3553 	42.3458 	-1.84516 	0
0.0514221 	-56.4695 	42.3477 	-1.82532 	0
0.0519935 	-56.5504 	42.349 	-1.80574 	0
0.0525648 	-56.6087 	42.3498 	-1.78593 	0
0.0531362 	-56.667 	42.3505 	-1.76612 	0
0.0537075 	-56.7252 	42.3513 	-1.74632 	0
0.0542789 	-56.7835 	42.352 	-1.72651 	0
0.0548503 	-56.8418 	42.3528 	-1.7067 	0
0.0554216 	-56.9 	42.3536 	-1.68689 	0
0.055993 	-56.9583 	42.3543 	-1.66708 	0
0.0565643 	-57.0166 	42.3551 	-1.64728 	0
0.0571357 	-57.113 	42.3571 	-1.62933 	0
0.057707 	-57.177 	42.3585 	-1.61163 	0
0.0582784 	-57.2208 	42.3594 	-1.59374 	0
0.0588497 	-57.2646 	42.3603 	-1.57585 	0
0.0594211 	-57.3083 	42.3612 	-1.55795 	0
0.0599925 	-57.3521 	42.362 	-1.54006 	0
0.0605638 	-57.3959 	42.3629 	-1.52216 	0
0.0611352 	-57.4396 	42.3638 	-1.50427 	0
0.0617065 	-57.4834 	42.3647 	-1.48637 	0
0.0622779 	-57.5272 	42.3656 	-1.46848 	0
0.0628492 	-57.5709 	42.3665 	-1.45059 	0
0.0634206 	-57.6325 	42.368 	-1.43336 	0
0.063992 	-57.7022 	42.37 	-1.417 	0
0.0645633 	-57.7357 	42.3711 	-1.4003 	0
0.0651347 	-57.7692 	42.3722 	-1.3836 	0
0.065706 	-57.8027 	42.3733 	-1.3669 	0
0.0662774 	-57.8363 	42.3744 	-1.35021 	0
0.0668487 	-57.8698 	42.3755 	-1.33351 	0
0.0674201 	-57.9033 	42.3767 	-1.31681 	0
0.0679915 	-57.9369 	42.3778 	-1.30012 	0
0.0685628 	-57.9704 	42.3789 	-1.28342 	0
0.0691342 	-58.0039 	42.38 	-1.26672 	0
0.0697055 	-58.0394 	42.3812 	-1.25007 	0
0.0702769 	-58.1076 	42.3836 	-1.23421 	0
0.0708482 	-58.1345 	42.3851 	-1.21797 	0
0.0714196 	-58.1613 	42.3865 	-1.20174 	0
0.071991 	-58.1881 	42.388 	-1.1855 	0
0.0725623 	-58.215 	42.3894 	-1.16927 	0
0.0731337 	-58.2418 	42.3908 	-1.15303 	0
0.073705 	-58.2687 	42.3923 	-1.1368 	0
0.0742764 	-58.2955 	42.3937 	-1.12056 	0
0.0748477 	-58.3224 	42.3952 	-1.10433 	0
0.0754191 	-58.3548 	42.3968 	-1.08826 	0
0.0759905 	-58.402 	42.3993 	-1.07299 	0
0.0765618 	-58.4234 	42.4011 	-1.05748 	0
0.0771332 	-58.4447 	42.403 	-1.04196 	0
0.0777045 	-58.4661 	42.4048 	-1.02645 	0
0.0782759 	-58.4875 	42.4066 	-1.01094 	0
0.0788472 	-58.5089 	42.4085 	-0.99543 	0
0.0794186 	-58.5303 	42.4103 	-0.979918 	0
0.0799899 	-58.5517 	42.4121 	-0.964407 	0
0.0805613 	-58.5895 	42.4147 	-0.94935 	0
0.0811327 	-58.6124 	42.4171 	-0.934416 	0
0.081704 	-58.6298 	42.4194 	-0.91943 	0
0.0822754 	-58.6473 	42.4217 	-0.904444 	0
0.0828467 	-58.6647 	42.4241 	-0.889458 	0
0.0834181 	-58.6821 	42.4264 	-0.874472 	0
0.0839894 	-58.6996 	42.4287 	-0.859486 	0
0.0845608 	-58.7171 	42.431 	-0.844502 	0
0.0851322 	-58.7494 	42.4344 	-0.830107 	0
0.0857035 	-58.7638 	42.4373 	-0.81553 	0
0.0862749 	-58.7783 	42.4402 	-0.800952 	0
0.0868462 	-58.7927 	42.4432 	-0.786375 	0
0.0874176 	-58.8071 	42.4461 	-0.771798 	0
0.0879889 	-58.8215 	42.449 	-0.757221 	0
0.0885603 	-58.8464 	42.4526 	-0.742902 	0
0.0891317 	-58.8606 	42.4564 	-0.728651 	0
0.089703 	-58.8726 	42.4601 	-0.714377 	0
0.0902744 	-58.8847 	42.4638 	-0.700102 	0
0.0908457 	-58.8968 	42.4675 	-0.685828 	0
0.0914171 	-58.9089 	42.4712 	-0.671554 	0
0.0919884 	-58.9299 	42.4759 	-0.657575 	0
0.0925598 	-58.9401 	42.4806 	-0.643543 	0
0.0931312 	-58.9503 	42.4853 	-0.629511 	0
0.0937025 	-58.9605 	42.49 	-0.615479 	0
0.0942739 	-58.9707 	42.4947 	-0.601447 	0
0.0948452 	-58.9877 	42.5006 	-0.58765 	0
0.0954166 	-58.9963 	42.5065 	-0.573802 	0
0.0959879 	-59.005 	42.5125 	-0.559955 	0
0.0965593 	-59.0136 	42.5185 	-0.546107 	0
0.0971307 	-59.0279 	42.5252 	-0.532402 	0
0.097702 	-59.0352 	42.5327 	-0.518706 	0
0.0982734 	-59.0426 	42.5403 	-0.505011 	0
0.0988447 	-59.0499 	42.5478 	-0.491315 	0
0.0994161 	-59.0613 	42.5566 	-0.477761 	0
0.0999874 	-59.0676 	42.566 	-0.464185 	0
0.100559 	-59.0739 	42.5755 	-0.450609 	0
0.10113 	-59.0834 	42.5856 	-0.437119 	0
0.101702 	-59.0888 	42.5973 	-0.423647 	0
0.102273 	-59.0941 	42.6091 	-0.410173 	0
0.102844 	-59.102 	42.6218 	-0.396784 	0
0.103416 	-59.1065 	42.6361 	-0.383396 	0
0.103987 	-59.111 	42.6504 	-0.370008 	0
0.104558 	-59.1171 	42.6672 	-0.356719 	0
0.10513 	-59.1209 	42.6844 	-0.343393 	0
0.105701 	-59.126 	42.7037 	-0.330157 	0
0.106272 	-59.1291 	42.724 	-0.316908 	0
0.106844 	-59.1332 	42.747 	-0.303736 	0
0.107415 	-59.1362 	42.7709 	-0.290561 	0
0.107986 	-59.1388 	42.798 	-0.277513 	0
0.108558 	-59.1405 	42.7976 	-0.264355 	0
0.109129 	-59.1401 	42.6636 	-0.249078 	0
0.109701 	-59.1364 	42.1424 	-0.226933 	0
0.110272 	-59.1336 	40.8741 	-0.192282 	0
0.110843 	-59.1359 	38.9897 	-0.151715 	0
0.111415 	-59.1418 	36.816 	-0.112759 	0
0.111986 	-59.154 	34.4375 	-0.0778614 	0
0.112557 	-59.1751 	31.6708 	-0.0471005 	0
0.113129 	-59.2043 	27.5462 	-0.0200376 	0
0.1137 	-59.2281 	1.1487e-10 	-4.65317e-15 	0
