0 	53.4844 	0 	0 	0
0.000571357 	53.3508 	16.0123 	-0.0703001 	0
0.00114271 	53.1067 	17.4427 	-0.161375 	0
0.00171407 	52.8808 	18.0244 	-0.257312 	0
0.00228543 	52.6987 	18.3498 	-0.35687 	0
0.00285678 	52.5482 	18.6139 	-0.45905 	0
0.00342814 	52.4119 	18.9233 	-0.559743 	0
0.0039995 	52.2602 	19.3461 	-0.656049 	0
0.00457085 	52.0754 	19.9075 	-0.745334 	0
0.00514221 	51.8391 	20.6193 	-0.827578 	0
0.00571357 	51.5619 	21.4469 	-0.902832 	0
0.00628492 	51.246 	22.3703 	-0.972538 	0
0.00685628 	50.8981 	23.3703 	-1.03768 	0
0.00742764 	50.5454 	24.4373 	-1.09806 	0
0.00799899 	50.183 	25.6138 	-1.15363 	0
0.00857035 	49.7784 	26.893 	-1.20571 	0
0.00914171 	49.3266 	28.2055 	-1.25241 	0
0.00971307 	48.8539 	29.5112 	-1.29473 	0
0.0102844 	48.3643 	30.8521 	-1.33245 	0
0.0108558 	47.8533 	32.1788 	-1.36085 	0
0.0114271 	47.3162 	33.2583 	-1.37487 	0
0.0119985 	46.7441 	33.8677 	-1.37493 	0
0.0125698 	46.267 	34.0865 	-1.36939 	0
0.0131412 	45.9786 	34.6019 	-1.35934 	0
0.0137126 	45.4129 	35.3609 	-1.35303 	0
0.0142839 	44.7992 	35.7128 	-1.35644 	0
0.0148553 	44.1804 	36.0347 	-1.36027 	0
0.0154266 	43.5553 	36.3436 	-1.36372 	0
0.015998 	42.9271 	36.6397 	-1.36681 	0
0.0165693 	42.2955 	36.9253 	-1.36953 	0
0.0171407 	41.6611 	37.2013 	-1.37188 	0
0.0177121 	41.0246 	37.4687 	-1.37388 	0
0.0182834 	40.3865 	37.7287 	-1.37557 	0
0.0188548 	39.7504 	37.9791 	-1.37715 	0
0.0194261 	39.1101 	38.2208 	-1.3781 	0
0.0199975 	38.4691 	38.4583 	-1.37883 	0
0.0205688 	37.8321 	38.6794 	-1.37927 	0
0.0211402 	37.1908 	38.899 	-1.37926 	0
0.0217116 	36.5551 	39.099 	-1.3789 	0
0.0222829 	35.9156 	39.3003 	-1.37823 	0
0.0228543 	35.2819 	39.472 	-1.37669 	0
0.0234256 	34.6495 	39.6413 	-1.37516 	0
0.023997 	34.0145 	39.7955 	-1.37248 	0
0.0245683 	33.389 	39.9222 	-1.36934 	0
0.0251397 	32.7636 	40.0489 	-1.36621 	0
0.0257111 	32.1384 	40.1513 	-1.36139 	0
0.0262824 	31.5256 	40.2251 	-1.35622 	0
0.0268538 	30.9127 	40.2988 	-1.35104 	0
0.0274251 	30.2969 	40.3654 	-1.34463 	0
0.0279965 	29.7042 	40.3866 	-1.33745 	0
0.0285678 	29.1114 	40.4078 	-1.33027 	0
0.0291392 	28.5186 	40.429 	-1.32309 	0
0.0297106 	27.9296 	40.4407 	-1.3143 	0
0.0302819 	27.3652 	40.4314 	-1.30584 	0
0.0308533 	26.8008 	40.422 	-1.29739 	0
0.0314246 	26.2363 	40.4126 	-1.28894 	0
0.031996 	25.6652 	40.4045 	-1.2791 	0
0.0325673 	25.1335 	40.4001 	-1.27092 	0
0.0331387 	24.6017 	40.3956 	-1.26274 	0
0.0337101 	24.0699 	40.3911 	-1.25456 	0
0.0342814 	23.5382 	40.3866 	-1.24639 	0
0.0348528 	22.9998 	40.3825 	-1.23667 	0
0.0354241 	22.4998 	40.3974 	-1.22921 	0
0.0359955 	21.9997 	40.4123 	-1.22176 	0
0.0365668 	21.4996 	40.4271 	-1.21431 	0
0.0371382 	20.9996 	40.442 	-1.20686 	0
0.0377095 	20.4988 	40.4568 	-1.19926 	0
0.0382809 	20.0024 	40.4706 	-1.19021 	0
0.0388523 	19.5354 	40.4838 	-1.18243 	0
0.0394236 	19.0683 	40.497 	-1.17466 	0
0.039995 	18.6013 	40.5102 	-1.16688 	0
0.0405663 	18.1343 	40.5234 	-1.1591 	0
0.0411377 	17.6673 	40.5366 	-1.15133 	0
0.041709 	17.1947 	40.5499 	-1.14229 	0
0.0422804 	16.7547 	40.5589 	-1.13387 	0
0.0428518 	16.3255 	40.5664 	-1.12586 	0
0.0434231 	15.8963 	40.574 	-1.11786 	0
0.0439945 	15.4671 	40.5816 	-1.10985 	0
0.0445658 	15.0378 	40.5892 	-1.10185 	0
0.0451372 	14.6086 	40.5967 	-1.09384 	0
0.0457085 	14.1779 	40.6043 	-1.08544 	0
0.0462799 	13.7532 	40.6124 	-1.07596 	0
0.0468513 	13.364 	40.6215 	-1.068 	0
0.0474226 	12.9748 	40.6307 	-1.06005 	0
0.047994 	12.5857 	40.6399 	-1.05209 	0
0.0485653 	12.1965 	40.6491 	-1.04413 	0
0.0491367 	11.8074 	40.6583 	-1.03618 	0
0.049708 	11.4182 	40.6674 	-1.02822 	0
0.0502794 	11.0291 	40.6766 	-1.02026 	0
0.0508508 	10.6363 	40.6858 	-1.011 	0
0.0514221 	10.2715 	40.6943 	-1.00227 	0
0.0519935 	9.92464 	40.7024 	-0.994185 	0
0.0525648 	9.57781 	40.7105 	-0.986101 	0
0.0531362 	9.23098 	40.7186 	-0.978017 	0
0.0537075 	8.88416 	40.7268 	-0.969933 	0
0.0542789 	8.53733 	40.7349 	-0.961849 	0
0.0548503 	8.1905 	40.743 	-0.953766 	0
0.0554216 	7.84368 	40.7512 	-0.945682 	0
0.055993 	7.49685 	40.7593 	-0.937598 	0
0.0565643 	7.14713 	40.7674 	-0.927865 	0
0.0571357 	6.83799 	40.7749 	-0.919488 	0
0.057707 	6.54412 	40.7822 	-0.911629 	0
0.0582784 	6.25026 	40.7895 	-0.90377 	0
0.0588497 	5.95639 	40.7968 	-0.895912 	0
0.0594211 	5.66253 	40.8041 	-0.888053 	0
0.0599925 	5.36867 	40.8115 	-0.880194 	0
0.0605638 	5.0748 	40.8188 	-0.872336 	0
0.0611352 	4.78094 	40.8261 	-0.864477 	0
0.0617065 	4.48708 	40.8334 	-0.856618 	0
0.0622779 	4.19321 	40.8407 	-0.84876 	0
0.0628492 	3.89841 	40.848 	-0.839666 	0
0.0634206 	3.61974 	40.855 	-0.830893 	0
0.063992 	3.36703 	40.8617 	-0.823028 	0
0.0645633 	3.11432 	40.8685 	-0.815163 	0
0.0651347 	2.86161 	40.8752 	-0.807298 	0
0.065706 	2.60889 	40.882 	-0.799434 	0
0.0662774 	2.35618 	40.8887 	-0.791569 	0
0.0668487 	2.10347 	40.8954 	-0.783704 	0
0.0674201 	1.85075 	40.9022 	-0.775839 	0
0.0679915 	1.59804 	40.9089 	-0.767974 	0
0.0685628 	1.34533 	40.9156 	-0.760109 	0
0.0691342 	1.09272 	40.9223 	-0.751579 	0
0.0697055 	0.841576 	40.929 	-0.742412 	0
0.0702769 	0.618614 	40.9355 	-0.734317 	0
0.0708482 	0.395652 	40.942 	-0.726221 	0
0.0714196 	0.17269 	40.9485 	-0.718126 	0
0.071991 	-0.0502717 	40.955 	-0.71003 	0
0.0725623 	-0.273234 	40.9614 	-0.701935 	0
0.0731337 	-0.496195 	40.9679 	-0.693839 	0
0.073705 	-0.719157 	40.9744 	-0.685744 	0
0.0742764 	-0.942119 	40.9809 	-0.677648 	0
0.0748477 	-1.16464 	40.9874 	-0.669017 	0
0.0754191 	-1.38192 	40.9938 	-0.659837 	0
0.0759905 	-1.57411 	41 	-0.651764 	0
0.0765618 	-1.76629 	41.0063 	-0.64369 	0
0.0771332 	-1.95847 	41.0126 	-0.635617 	0
0.0777045 	-2.15065 	41.0188 	-0.627543 	0
0.0782759 	-2.34283 	41.0251 	-0.619469 	0
0.0788472 	-2.53502 	41.0314 	-0.611396 	0
0.0794186 	-2.7272 	41.0376 	-0.603322 	0
0.0799899 	-2.9184 	41.0438 	-0.594492 	0
0.0805613 	-3.09642 	41.0501 	-0.585856 	0
0.0811327 	-3.26315 	41.0563 	-0.577795 	0
0.081704 	-3.42988 	41.0625 	-0.569735 	0
0.0822754 	-3.59661 	41.0688 	-0.561674 	0
0.0828467 	-3.76334 	41.075 	-0.553614 	0
0.0834181 	-3.93007 	41.0813 	-0.545554 	0
0.0839894 	-4.0968 	41.0875 	-0.537493 	0
0.0845608 	-4.26175 	41.0937 	-0.528334 	0
0.0851322 	-4.40718 	41.1001 	-0.520303 	0
0.0857035 	-4.55261 	41.1066 	-0.512271 	0
0.0862749 	-4.69805 	41.113 	-0.504239 	0
0.0868462 	-4.84348 	41.1195 	-0.496208 	0
0.0874176 	-4.98891 	41.1259 	-0.488176 	0
0.0879889 	-5.13382 	41.1323 	-0.479842 	0
0.0885603 	-5.27031 	41.1389 	-0.471201 	0
0.0891317 	-5.3978 	41.1458 	-0.463187 	0
0.089703 	-5.52529 	41.1527 	-0.455172 	0
0.0902744 	-5.65277 	41.1596 	-0.447158 	0
0.0908457 	-5.78026 	41.1665 	-0.439144 	0
0.0914171 	-5.9069 	41.1733 	-0.430659 	0
0.0919884 	-6.02296 	41.1807 	-0.42236 	0
0.0925598 	-6.1352 	41.1884 	-0.414373 	0
0.0931312 	-6.24744 	41.196 	-0.406386 	0
0.0937025 	-6.35968 	41.2036 	-0.3984 	0
0.0942739 	-6.47125 	41.2112 	-0.390045 	0
0.0948452 	-6.5736 	41.2196 	-0.381782 	0
0.0954166 	-6.67284 	41.2283 	-0.373815 	0
0.0959879 	-6.77207 	41.237 	-0.365848 	0
0.0965593 	-6.87131 	41.2457 	-0.357881 	0
0.0971307 	-6.96547 	41.2549 	-0.349361 	0
0.097702 	-7.05355 	41.2651 	-0.34142 	0
0.0982734 	-7.14163 	41.2752 	-0.333479 	0
0.0988447 	-7.22963 	41.2854 	-0.325489 	0
0.0994161 	-7.31154 	41.2965 	-0.317127 	0
0.0999874 	-7.39003 	41.3085 	-0.309208 	0
0.100559 	-7.46853 	41.3205 	-0.301289 	0
0.10113 	-7.54425 	41.333 	-0.292961 	0
0.101702 	-7.61448 	41.3472 	-0.285067 	0
0.102273 	-7.68472 	41.3614 	-0.277172 	0
0.102844 	-7.75178 	41.3765 	-0.268928 	0
0.103416 	-7.81487 	41.3933 	-0.261056 	0
0.103987 	-7.87771 	41.4101 	-0.253029 	0
0.104558 	-7.93536 	41.4294 	-0.245019 	0
0.10513 	-7.99225 	41.4492 	-0.237167 	0
0.105701 	-8.04534 	41.4713 	-0.229094 	0
0.106272 	-8.09693 	41.4949 	-0.221314 	0
0.106844 	-8.14463 	41.5111 	-0.213416 	0
0.107415 	-8.19066 	41.5175 	-0.205462 	0
0.107986 	-8.23031 	41.3565 	-0.195157 	0
0.108558 	-8.26717 	40.8894 	-0.17956 	0
0.109129 	-8.30205 	40.0245 	-0.157819 	0
0.109701 	-8.3361 	38.6958 	-0.130169 	0
0.110272 	-8.36673 	37.101 	-0.102471 	0
0.110843 	-8.39425 	35.3725 	-0.0772118 	0
0.111415 	-8.42066 	33.5569 	-0.0545996 	0
0.111986 	-8.44596 	31.5959 	-0.0359167 	0
0.112557 	-8.46919 	29.2179 	-0.0203599 	0
0.113129 	-8.48836 	25.532 	-0.00801026 	0
0.1137 	-8.49799 	1.08442e-10 	-2.13226e-15 	0
