0 	-260.726 	0 	0 	0
0.000571357 	-260.461 	6.16749 	0.261484 	0
0.00114271 	-259.781 	1.09387 	1.50703 	0
0.00171407 	-260.898 	-5.96142 	3.95705 	0
0.00228543 	-265.863 	-10.7783 	6.23494 	0
0.00285678 	-274.582 	-12.1985 	7.48273 	0
0.00342814 	-284.907 	-11.6861 	7.91249 	0
0.0039995 	-294.706 	-10.2814 	7.86416 	0
0.00457085 	-302.932 	-8.48565 	7.57539 	0
0.00514221 	-309.267 	-6.55795 	7.17368 	0
0.00571357 	-313.729 	-4.63537 	6.73014 	0
0.00628492 	-316.499 	-2.7539 	6.27828 	0
0.00685628 	-317.817 	-0.92175 	5.84127 	0
0.00742764 	-317.782 	0.870302 	5.42716 	0
0.00799899 	-316.625 	2.65943 	5.04112 	0
0.00857035 	-314.576 	4.48112 	4.68183 	0
0.00914171 	-311.825 	6.36884 	4.35187 	0
0.00971307 	-308.54 	8.3604 	4.04018 	0
0.0102844 	-304.969 	10.4851 	3.73692 	0
0.0108558 	-301.557 	12.6665 	3.41365 	0
0.0114271 	-297.868 	14.8084 	3.04463 	0
0.0119985 	-293.506 	17.1737 	2.6426 	0
0.0125698 	-288.856 	20.2763 	2.27696 	0
0.0131412 	-297.707 	24.3931 	1.93752 	0
0.0137126 	-296.235 	27.2211 	1.68518 	0
0.0142839 	-292.732 	29.8242 	1.46209 	0
0.0148553 	-288.399 	32.5133 	1.28944 	0
0.0154266 	-283.627 	34.9705 	1.15232 	0
0.015998 	-279.534 	35.8449 	0.897618 	0
0.0165693 	-276.021 	36.3641 	0.643007 	0
0.0171407 	-272.916 	36.8631 	0.407182 	0
0.0177121 	-269.992 	37.3487 	0.194231 	0
0.0182834 	-267.417 	37.8301 	-0.00448045 	0
0.0188548 	-265.056 	38.3014 	-0.186811 	0
0.0194261 	-262.786 	38.7627 	-0.353376 	0
0.0199975 	-260.65 	39.2172 	-0.506923 	0
0.0205688 	-258.621 	39.644 	-0.648101 	0
0.0211402 	-256.678 	40.0235 	-0.777752 	0
0.0217116 	-254.73 	40.3505 	-0.894688 	0
0.0222829 	-252.836 	40.6694 	-1.00144 	0
0.0228543 	-251.086 	40.9924 	-1.10065 	0
0.0234256 	-249.366 	41.3151 	-1.19302 	0
0.023997 	-247.511 	41.6158 	-1.27453 	0
0.0245683 	-245.855 	41.9004 	-1.34979 	0
0.0251397 	-244.186 	42.1697 	-1.42018 	0
0.0257111 	-242.438 	42.4061 	-1.47995 	0
0.0262824 	-240.829 	42.6444 	-1.53827 	0
0.0268538 	-239.102 	42.8769 	-1.58823 	0
0.0274251 	-237.523 	43.1118 	-1.6369 	0
0.0279965 	-235.829 	43.3369 	-1.67826 	0
0.0285678 	-234.27 	43.5583 	-1.71882 	0
0.0291392 	-232.612 	43.7273 	-1.74982 	0
0.0297106 	-231.05 	43.9003 	-1.7815 	0
0.0302819 	-229.461 	43.9898 	-1.80286 	0
0.0308533 	-227.873 	44.0695 	-1.82306 	0
0.0314246 	-226.389 	44.1395 	-1.84078 	0
0.031996 	-224.856 	44.1914 	-1.85403 	0
0.0325673 	-223.392 	44.2456 	-1.86803 	0
0.0331387 	-221.936 	44.2946 	-1.87658 	0
0.0337101 	-220.47 	44.3422 	-1.8839 	0
0.0342814 	-219.083 	44.3928 	-1.89229 	0
0.0348528 	-217.696 	44.3883 	-1.89252 	0
0.0354241 	-216.309 	44.3835 	-1.89271 	0
0.0359955 	-214.985 	44.3813 	-1.89397 	0
0.0365668 	-213.692 	44.3517 	-1.8896 	0
0.0371382 	-212.4 	44.3199 	-1.88477 	0
0.0377095 	-211.139 	44.2892 	-1.88062 	0
0.0382809 	-209.931 	44.259 	-1.87435 	0
0.0388523 	-208.735 	44.2285 	-1.86631 	0
0.0394236 	-207.539 	44.1979 	-1.85826 	0
0.039995 	-206.393 	44.1687 	-1.85135 	0
0.0405663 	-205.295 	44.135 	-1.84049 	0
0.0411377 	-204.198 	44.1013 	-1.82963 	0
0.041709 	-203.107 	44.0677 	-1.81901 	0
0.0422804 	-202.056 	44.0356 	-1.80886 	0
0.0428518 	-201.058 	44.006 	-1.79619 	0
0.0434231 	-200.06 	43.9764 	-1.78352 	0
0.0439945 	-199.064 	43.9469 	-1.77095 	0
0.0445658 	-198.092 	43.9179 	-1.75939 	0
0.0451372 	-197.19 	43.9029 	-1.74588 	0
0.0457085 	-196.289 	43.8881 	-1.73236 	0
0.0462799 	-195.387 	43.8732 	-1.71883 	0
0.0468513 	-194.497 	43.8586 	-1.70597 	0
0.0474226 	-193.649 	43.8472 	-1.69258 	0
0.047994 	-192.839 	43.8392 	-1.67824 	0
0.0485653 	-192.029 	43.8311 	-1.6639 	0
0.0491367 	-191.22 	43.8231 	-1.64956 	0
0.049708 	-190.419 	43.8153 	-1.63601 	0
0.0502794 	-189.668 	43.8065 	-1.62161 	0
0.0508508 	-188.948 	43.797 	-1.60658 	0
0.0514221 	-188.229 	43.7875 	-1.59155 	0
0.0519935 	-187.509 	43.778 	-1.57652 	0
0.0525648 	-186.793 	43.7687 	-1.56207 	0
0.0531362 	-186.106 	43.7598 	-1.5475 	0
0.0537075 	-185.472 	43.7518 	-1.53224 	0
0.0542789 	-184.839 	43.7437 	-1.51698 	0
0.0548503 	-184.205 	43.7357 	-1.50172 	0
0.0554216 	-183.572 	43.7277 	-1.48657 	0
0.055993 	-182.94 	43.7197 	-1.47202 	0
0.0565643 	-182.36 	43.7133 	-1.45708 	0
0.0571357 	-181.808 	43.7077 	-1.44195 	0
0.057707 	-181.257 	43.7021 	-1.42681 	0
0.0582784 	-180.705 	43.6965 	-1.41168 	0
0.0588497 	-180.153 	43.691 	-1.39661 	0
0.0594211 	-179.6 	43.6853 	-1.38209 	0
0.0599925 	-179.09 	43.6805 	-1.36756 	0
0.0605638 	-178.622 	43.6764 	-1.35301 	0
0.0611352 	-178.155 	43.6723 	-1.33846 	0
0.0617065 	-177.688 	43.6682 	-1.3239 	0
0.0622779 	-177.22 	43.6642 	-1.30935 	0
0.0628492 	-176.751 	43.66 	-1.29512 	0
0.0634206 	-176.28 	43.6558 	-1.28109 	0
0.063992 	-175.87 	43.6525 	-1.26705 	0
0.0645633 	-175.469 	43.6493 	-1.25301 	0
0.0651347 	-175.069 	43.6461 	-1.23897 	0
0.065706 	-174.668 	43.6429 	-1.22492 	0
0.0662774 	-174.268 	43.6397 	-1.21088 	0
0.0668487 	-173.862 	43.6363 	-1.19728 	0
0.0674201 	-173.469 	43.6333 	-1.18367 	0
0.0679915 	-173.118 	43.6312 	-1.16999 	0
0.0685628 	-172.768 	43.629 	-1.15631 	0
0.0691342 	-172.418 	43.6269 	-1.14263 	0
0.0697055 	-172.067 	43.6248 	-1.12896 	0
0.0702769 	-171.713 	43.6226 	-1.11556 	0
0.0708482 	-171.36 	43.6204 	-1.10231 	0
0.0714196 	-171.057 	43.6198 	-1.0893 	0
0.071991 	-170.754 	43.6192 	-1.0763 	0
0.0725623 	-170.45 	43.6186 	-1.0633 	0
0.0731337 	-170.147 	43.618 	-1.0503 	0
0.073705 	-169.838 	43.6172 	-1.03761 	0
0.0742764 	-169.545 	43.6174 	-1.0251 	0
0.0748477 	-169.28 	43.6193 	-1.01278 	0
0.0754191 	-169.015 	43.6211 	-1.00046 	0
0.0759905 	-168.75 	43.623 	-0.988142 	0
0.0765618 	-168.481 	43.6247 	-0.975986 	0
0.0771332 	-168.213 	43.6267 	-0.964033 	0
0.0777045 	-167.979 	43.6308 	-0.952414 	0
0.0782759 	-167.746 	43.6349 	-0.940795 	0
0.0788472 	-167.512 	43.639 	-0.929176 	0
0.0794186 	-167.274 	43.643 	-0.917707 	0
0.0799899 	-167.041 	43.6472 	-0.906455 	0
0.0805613 	-166.833 	43.6521 	-0.895453 	0
0.0811327 	-166.625 	43.657 	-0.884452 	0
0.081704 	-166.417 	43.6619 	-0.873451 	0
0.0822754 	-166.201 	43.6666 	-0.862681 	0
0.0828467 	-166.007 	43.6718 	-0.852217 	0
0.0834181 	-165.82 	43.6771 	-0.841858 	0
0.0839894 	-165.633 	43.6825 	-0.831499 	0
0.0845608 	-165.441 	43.6877 	-0.821281 	0
0.0851322 	-165.259 	43.6932 	-0.811323 	0
0.0857035 	-165.09 	43.699 	-0.801514 	0
0.0862749 	-164.92 	43.7048 	-0.791704 	0
0.0868462 	-164.744 	43.7103 	-0.782021 	0
0.0874176 	-164.582 	43.7162 	-0.772663 	0
0.0879889 	-164.426 	43.7223 	-0.763431 	0
0.0885603 	-164.27 	43.7284 	-0.754206 	0
0.0891317 	-164.11 	43.7342 	-0.745141 	0
0.089703 	-163.966 	43.7407 	-0.736329 	0
0.0902744 	-163.822 	43.7471 	-0.727516 	0
0.0908457 	-163.674 	43.7533 	-0.718767 	0
0.0914171 	-163.537 	43.7589 	-0.710324 	0
0.0919884 	-163.404 	43.7643 	-0.701952 	0
0.0925598 	-163.268 	43.7697 	-0.693608 	0
0.0931312 	-163.14 	43.76 	-0.685194 	0
0.0937025 	-163.017 	43.7447 	-0.676744 	0
0.0942739 	-162.89 	43.7297 	-0.668309 	0
0.0948452 	-162.775 	43.6385 	-0.658844 	0
0.0954166 	-162.662 	43.538 	-0.64925 	0
0.0959879 	-162.55 	43.4208 	-0.639416 	0
0.0965593 	-162.45 	43.2552 	-0.628892 	0
0.0971307 	-162.349 	43.0897 	-0.618369 	0
0.097702 	-162.26 	42.9281 	-0.607667 	0
0.0982734 	-162.173 	42.7673 	-0.596934 	0
0.0988447 	-162.095 	42.6067 	-0.585801 	0
0.0994161 	-162.025 	42.4462 	-0.574366 	0
0.0999874 	-161.963 	42.2863 	-0.562601 	0
0.100559 	-161.91 	42.1266 	-0.550423 	0
0.10113 	-161.869 	41.9678 	-0.537666 	0
0.101702 	-161.837 	41.8093 	-0.524411 	0
0.102273 	-161.822 	41.6047 	-0.509825 	0
0.102844 	-161.816 	41.3334 	-0.494239 	0
0.103416 	-161.833 	40.6819 	-0.472717 	0
0.103987 	-161.868 	39.3544 	-0.443065 	0
0.104558 	-161.921 	37.4459 	-0.406859 	0
0.10513 	-161.997 	34.9809 	-0.365307 	0
0.105701 	-162.094 	32.6286 	-0.324969 	0
0.106272 	-162.201 	30.2897 	-0.286583 	0
0.106844 	-162.316 	27.9489 	-0.250258 	0
0.107415 	-162.434 	25.6057 	-0.217225 	0
0.107986 	-162.552 	23.2556 	-0.188957 	0
0.108558 	-162.66 	20.889 	-0.167192 	0
0.109129 	-162.751 	18.4774 	-0.154068 	0
0.109701 	-162.826 	15.8317 	-0.14866 	0
0.110272 	-162.878 	12.8057 	-0.142935 	0
0.110843 	-162.905 	10.2983 	-0.139611 	0
0.111415 	-162.893 	8.28675 	-0.129167 	0
0.111986 	-162.879 	6.37793 	-0.102428 	0
0.112557 	-162.865 	4.75466 	-0.0640613 	0
0.113129 	-162.85 	3.49374 	-0.0325053 	0
0.1137 	-162.823 	2.34517 	-0.0154083 	0
