0.0131412 	-225.585 	10.1113 	0 	0
0.0137126 	-225.497 	23.1953 	-1.70295e-16 	0
0.0154266 	-225.123 	32.0524 	-5.13992e-17 	0
0.015998 	-224.983 	32.8689 	0 	0
0.0165693 	-224.827 	33.6354 	0 	0
0.0171407 	-224.661 	34.2578 	0 	0
0.0177121 	-224.482 	34.8489 	0 	0
0.0182834 	-224.293 	35.4167 	0 	0
0.0188548 	-224.094 	35.9725 	0 	0
0.0194261 	-223.885 	36.5053 	7.14451e-17 	0
0.0199975 	-223.667 	37.0231 	0 	0
0.0205688 	-223.44 	37.5409 	-1.51463e-16 	0
0.0217116 	-222.959 	38.5114 	0 	0
0.0222829 	-222.708 	38.9073 	0 	0
0.0228543 	-222.449 	39.2854 	0 	0
0.0234256 	-222.186 	39.6571 	0 	0
0.023997 	-221.913 	40.0288 	0 	0
0.0245683 	-221.635 	40.3923 	0 	0
0.0251397 	-221.352 	40.7501 	0 	0
0.0257111 	-221.06 	41.0635 	0 	0
0.0262824 	-220.767 	41.3691 	0 	0
0.0268538 	-220.465 	41.6479 	0 	0
0.0274251 	-220.16 	41.9267 	0 	0
0.0279965 	-219.848 	42.2055 	0 	0
0.0285678 	-219.534 	42.4842 	0 	0
0.0291392 	-219.21 	42.763 	0 	0
0.0297106 	-218.886 	43.0418 	0 	0
0.0302819 	-218.554 	43.2406 	0 	0
0.0308533 	-218.221 	43.4298 	0 	0
0.0314246 	-217.885 	43.5803 	0 	0
0.031996 	-217.545 	43.6857 	0 	0
0.0325673 	-217.205 	43.791 	0 	0
0.0331387 	-216.859 	43.8957 	0 	0
0.0337101 	-216.513 	44.0002 	0 	0
0.0342814 	-216.166 	44.1048 	0 	0
0.0348528 	-215.814 	44.1672 	0 	0
0.0354241 	-215.463 	44.2294 	0 	0
0.0359955 	-215.111 	44.2916 	0 	0
0.0365668 	-214.756 	44.3063 	0 	0
0.0371382 	-214.401 	44.3173 	0 	0
0.0377095 	-214.046 	44.3284 	0 	0
0.0382809 	-213.69 	44.3316 	0 	0
0.0388523 	-213.333 	44.33 	0 	0
0.0394236 	-212.977 	44.3284 	0 	0
0.039995 	-212.62 	44.3265 	0 	0
0.0405663 	-212.263 	44.3173 	9.7876e-17 	0
0.0411377 	-211.905 	44.3081 	-9.87701e-17 	0
0.041709 	-211.547 	44.2989 	0 	0
0.0422804 	-211.19 	44.2888 	0 	0
0.0428518 	-210.832 	44.2744 	0 	0
0.0434231 	-210.474 	44.2601 	0 	0
0.0439945 	-210.116 	44.2457 	0 	0
0.0445658 	-209.759 	44.2314 	0 	0
0.0451372 	-209.401 	44.2272 	0 	0
0.0457085 	-209.043 	44.2231 	0 	0
0.0462799 	-208.685 	44.219 	0 	0
0.0468513 	-208.327 	44.215 	0 	0
0.0474226 	-207.969 	44.215 	0 	0
0.047994 	-207.611 	44.2194 	0 	0
0.0485653 	-207.252 	44.2238 	0 	0
0.0491367 	-206.894 	44.2282 	0 	0
0.049708 	-206.536 	44.2326 	0 	0
0.0502794 	-206.178 	44.2355 	0 	0
0.0508508 	-205.82 	44.2373 	0 	0
0.0514221 	-205.462 	44.2392 	0 	0
0.0519935 	-205.104 	44.2411 	0 	0
0.0525648 	-204.745 	44.243 	0 	0
0.0531362 	-204.388 	44.2442 	0 	0
0.0537075 	-204.031 	44.2442 	0 	0
0.0542789 	-203.674 	44.2442 	0 	0
0.0548503 	-203.318 	44.2442 	0 	0
0.0554216 	-202.961 	44.2442 	0 	0
0.055993 	-202.604 	44.2442 	0 	0
0.0565643 	-202.249 	44.2442 	0 	0
0.0571357 	-201.895 	44.2442 	0 	0
0.057707 	-201.541 	44.2442 	0 	0
0.0582784 	-201.186 	44.2442 	0 	0
0.0588497 	-200.832 	44.2442 	9.72003e-17 	0
0.0594211 	-200.478 	44.2442 	-9.74607e-17 	0
0.0599925 	-200.129 	44.244 	0 	0
0.0605638 	-199.784 	44.2435 	0 	0
0.0611352 	-199.44 	44.243 	0 	0
0.0617065 	-199.095 	44.2425 	0 	0
0.0622779 	-198.751 	44.242 	9.62065e-17 	0
0.0628492 	-198.406 	44.2415 	-1.90895e-16 	0
0.0674201 	-195.683 	44.2308 	-1.83333e-16 	0
0.0742764 	-191.638 	44.2074 	0 	0
0.0748477 	-191.31 	44.2066 	0 	0
0.0754191 	-190.981 	44.2059 	0 	0
0.0759905 	-190.652 	44.2051 	0 	0
0.0765618 	-190.324 	44.2044 	0 	0
0.0771332 	-189.996 	44.2038 	0 	0
0.0777045 	-189.672 	44.2048 	0 	0
0.0782759 	-189.349 	44.2057 	0 	0
0.0788472 	-189.026 	44.2067 	0 	0
0.0794186 	-188.702 	44.2076 	8.88435e-17 	0
0.0799899 	-188.38 	44.2087 	-8.58954e-17 	0
0.0805613 	-188.062 	44.21 	0 	0
0.0811327 	-187.744 	44.2113 	0 	0
0.081704 	-187.425 	44.2127 	0 	0
0.0822754 	-187.107 	44.214 	0 	0
0.0828467 	-186.792 	44.2153 	0 	0
0.0834181 	-186.478 	44.2166 	8.62036e-17 	0
0.0839894 	-186.165 	44.218 	0 	0
0.0845608 	-185.851 	44.2193 	0 	0
0.0851322 	-185.54 	44.2206 	0 	0
0.0857035 	-185.23 	44.222 	0 	0
0.0862749 	-184.921 	44.2233 	0 	0
0.0868462 	-184.611 	44.2246 	-8.35602e-17 	0
0.0874176 	-184.305 	44.2259 	0 	0
0.0879889 	-183.999 	44.2273 	0 	0
0.0885603 	-183.694 	44.2286 	0 	0
0.0891317 	-183.388 	44.2299 	0 	0
0.089703 	-183.086 	44.2312 	0 	0
0.0902744 	-182.784 	44.2326 	0 	0
0.0908457 	-182.482 	44.2339 	8.30406e-17 	0
0.0914171 	-182.182 	44.2352 	0 	0
0.0919884 	-181.883 	44.2366 	-1.61948e-16 	0
0.0948452 	-180.399 	44.18 	0 	0
0.0954166 	-180.106 	44.1103 	0 	0
0.0959879 	-179.815 	44.0181 	-7.86007e-17 	0
0.097702 	-178.961 	43.5442 	0 	0
0.0982734 	-178.681 	43.3792 	0 	0
0.0988447 	-178.404 	43.2142 	0 	0
0.0994161 	-178.13 	43.0493 	0 	0
0.0999874 	-177.858 	42.8843 	-7.56604e-17 	0
0.10113 	-177.322 	42.5543 	0 	0
0.101702 	-177.056 	42.3893 	0 	0
0.102273 	-176.792 	42.2243 	7.69105e-17 	0
0.102844 	-176.528 	42.0593 	-2.18342e-16 	0
0.103987 	-176.013 	41.1745 	0 	0
0.104558 	-175.776 	39.8775 	6.42974e-17 	0
0.10513 	-175.568 	37.661 	-1.86416e-16 	0
0.106272 	-175.225 	32.9831 	-5.33176e-17 	0
0.106844 	-175.084 	30.6357 	0 	0
0.107415 	-174.962 	28.2883 	0 	0
0.107986 	-174.859 	25.9409 	0 	0
0.108558 	-174.772 	23.5935 	0 	0
0.109129 	-174.7 	21.246 	3.54258e-17 	0
0.109701 	-174.644 	18.8986 	0 	0
0.110272 	-174.598 	16.5512 	-2.7542e-17 	0
0.110843 	-174.563 	14.2037 	0 	0
0.111415 	-174.538 	11.8563 	-2.1486e-17 	0
0.112557 	-174.506 	7.16142 	2.79177e-17 	0
0.113129 	-174.497 	4.81397 	-3.05884e-17 	0
