0.0131412 	-163.384 	20.1841 	-0.00739304 	0
0.0137126 	-163.37 	25.0702 	-0.00976772 	0
0.0142839 	-163.343 	29.0451 	0.00476806 	0
0.0148553 	-163.314 	32.0345 	0.0216835 	0
0.0154266 	-163.295 	33.5776 	0.0208873 	0
0.015998 	-163.275 	34.5534 	0.0149693 	0
0.0165693 	-163.252 	35.373 	0.00895186 	0
0.0171407 	-163.226 	36.0841 	0.00295127 	0
0.0177121 	-163.197 	36.7152 	-0.00301019 	0
0.0182834 	-163.166 	37.2881 	-0.00892019 	0
0.0188548 	-163.131 	37.8027 	-0.0148894 	0
0.0194261 	-163.093 	38.2726 	-0.0206861 	0
0.0199975 	-163.054 	38.7228 	-0.0264015 	0
0.0205688 	-163.008 	39.1221 	-0.0321827 	0
0.0211402 	-162.963 	39.5153 	-0.0377467 	0
0.0217116 	-162.911 	39.868 	-0.0433838 	0
0.0222829 	-162.86 	40.2208 	-0.0488331 	0
0.0228543 	-162.801 	40.5353 	-0.0542794 	0
0.0234256 	-162.741 	40.8472 	-0.0597395 	0
0.023997 	-162.68 	41.1444 	-0.0648922 	0
0.0245683 	-162.611 	41.4205 	-0.0701606 	0
0.0251397 	-162.544 	41.6966 	-0.0753557 	0
0.0257111 	-162.473 	41.9563 	-0.0803199 	0
0.0262824 	-162.394 	42.2008 	-0.0853393 	0
0.0268538 	-162.314 	42.4453 	-0.0903588 	0
0.0274251 	-162.24 	42.6842 	-0.0950688 	0
0.0279965 	-162.15 	42.9006 	-0.0998495 	0
0.0285678 	-162.06 	43.117 	-0.10463 	0
0.0291392 	-161.972 	43.3336 	-0.109319 	0
0.0297106 	-161.883 	43.5298 	-0.113725 	0
0.0302819 	-161.781 	43.6965 	-0.118029 	0
0.0308533 	-161.678 	43.8632 	-0.122333 	0
0.0314246 	-161.577 	44.03 	-0.126618 	0
0.031996 	-161.484 	44.1914 	-0.130643 	0
0.0325673 	-161.371 	44.2516 	-0.134228 	0
0.0331387 	-161.257 	44.3118 	-0.137814 	0
0.0337101 	-161.144 	44.3719 	-0.1414 	0
0.0342814 	-161.033 	44.4323 	-0.144943 	0
0.0348528 	-160.931 	44.4891 	-0.148322 	0
0.0354241 	-160.81 	44.4843 	-0.151331 	0
0.0359955 	-160.688 	44.4796 	-0.15434 	0
0.0365668 	-160.567 	44.4749 	-0.157348 	0
0.0371382 	-160.446 	44.4701 	-0.160357 	0
0.0377095 	-160.334 	44.4656 	-0.163281 	0
0.0382809 	-160.219 	44.4613 	-0.166064 	0
0.0388523 	-160.091 	44.4569 	-0.168649 	0
0.0394236 	-159.963 	44.4524 	-0.171235 	0
0.039995 	-159.835 	44.448 	-0.173821 	0
0.0405663 	-159.707 	44.4436 	-0.176407 	0
0.0411377 	-159.583 	44.4393 	-0.178967 	0
0.041709 	-159.468 	44.4352 	-0.181471 	0
0.0422804 	-159.339 	44.4311 	-0.183686 	0
0.0428518 	-159.205 	44.4271 	-0.185816 	0
0.0434231 	-159.072 	44.423 	-0.187946 	0
0.0439945 	-158.938 	44.419 	-0.190076 	0
0.0445658 	-158.805 	44.415 	-0.192205 	0
0.0451372 	-158.671 	44.4109 	-0.194335 	0
0.0457085 	-158.551 	44.4072 	-0.196428 	0
0.0462799 	-158.426 	44.4034 	-0.198401 	0
0.0468513 	-158.289 	44.3998 	-0.200007 	0
0.0474226 	-158.153 	44.3961 	-0.201612 	0
0.047994 	-158.016 	44.3924 	-0.203217 	0
0.0485653 	-157.879 	44.3887 	-0.204823 	0
0.0491367 	-157.742 	44.385 	-0.206428 	0
0.049708 	-157.605 	44.3813 	-0.208034 	0
0.0502794 	-157.476 	44.3778 	-0.209645 	0
0.0508508 	-157.352 	44.3744 	-0.211261 	0
0.0514221 	-157.22 	44.3711 	-0.212525 	0
0.0519935 	-157.082 	44.3678 	-0.213571 	0
0.0525648 	-156.945 	44.3645 	-0.214618 	0
0.0531362 	-156.808 	44.3612 	-0.215665 	0
0.0537075 	-156.67 	44.358 	-0.216711 	0
0.0542789 	-156.533 	44.3547 	-0.217758 	0
0.0548503 	-156.396 	44.3514 	-0.218804 	0
0.0554216 	-156.259 	44.3481 	-0.219853 	0
0.055993 	-156.133 	44.3451 	-0.220955 	0
0.0565643 	-156.008 	44.3421 	-0.222057 	0
0.0571357 	-155.879 	44.3393 	-0.22269 	0
0.057707 	-155.748 	44.3365 	-0.223145 	0
0.0582784 	-155.618 	44.3338 	-0.2236 	0
0.0588497 	-155.487 	44.3311 	-0.224055 	0
0.0594211 	-155.356 	44.3284 	-0.22451 	0
0.0599925 	-155.226 	44.3256 	-0.224966 	0
0.0605638 	-155.095 	44.3229 	-0.225421 	0
0.0611352 	-154.964 	44.3202 	-0.225876 	0
0.0617065 	-154.834 	44.3175 	-0.226335 	0
0.0622779 	-154.714 	44.315 	-0.226885 	0
0.0628492 	-154.594 	44.3125 	-0.227435 	0
0.0634206 	-154.473 	44.3101 	-0.227747 	0
0.063992 	-154.349 	44.3079 	-0.227679 	0
0.0645633 	-154.225 	44.3058 	-0.227611 	0
0.0651347 	-154.101 	44.3036 	-0.227544 	0
0.065706 	-153.977 	44.3015 	-0.227476 	0
0.0662774 	-153.854 	44.2993 	-0.227408 	0
0.0668487 	-153.73 	44.2971 	-0.227341 	0
0.0674201 	-153.606 	44.295 	-0.227273 	0
0.0679915 	-153.482 	44.2928 	-0.227205 	0
0.0685628 	-153.365 	44.2908 	-0.227228 	0
0.0691342 	-153.25 	44.2888 	-0.227289 	0
0.0697055 	-153.136 	44.2869 	-0.227323 	0
0.0702769 	-153.018 	44.2853 	-0.22681 	0
0.0708482 	-152.901 	44.2837 	-0.226298 	0
0.0714196 	-152.783 	44.2822 	-0.225786 	0
0.071991 	-152.665 	44.2806 	-0.225273 	0
0.0725623 	-152.548 	44.279 	-0.224761 	0
0.0731337 	-152.43 	44.2774 	-0.224249 	0
0.073705 	-152.312 	44.2758 	-0.223736 	0
0.0742764 	-152.199 	44.2743 	-0.223298 	0
0.0748477 	-152.089 	44.273 	-0.222943 	0
0.0754191 	-151.98 	44.2716 	-0.222511 	0
0.0759905 	-151.873 	44.2707 	-0.221661 	0
0.0765618 	-151.765 	44.2698 	-0.220811 	0
0.0771332 	-151.658 	44.2689 	-0.219961 	0
0.0777045 	-151.55 	44.268 	-0.219111 	0
0.0782759 	-151.443 	44.2671 	-0.218261 	0
0.0788472 	-151.335 	44.2662 	-0.217411 	0
0.0794186 	-151.231 	44.2654 	-0.216656 	0
0.0799899 	-151.131 	44.2647 	-0.215981 	0
0.0805613 	-151.032 	44.2642 	-0.215081 	0
0.0811327 	-150.935 	44.2641 	-0.21398 	0
0.081704 	-150.837 	44.2639 	-0.212878 	0
0.0822754 	-150.74 	44.2637 	-0.211777 	0
0.0828467 	-150.642 	44.2636 	-0.210676 	0
0.0834181 	-150.545 	44.2634 	-0.209575 	0
0.0839894 	-150.452 	44.2633 	-0.208616 	0
0.0845608 	-150.361 	44.2633 	-0.207701 	0
0.0851322 	-150.273 	44.2639 	-0.206413 	0
0.0857035 	-150.185 	44.2646 	-0.205126 	0
0.0862749 	-150.097 	44.2652 	-0.203839 	0
0.0868462 	-150.009 	44.2659 	-0.202551 	0
0.0874176 	-149.921 	44.2665 	-0.201264 	0
0.0879889 	-149.839 	44.2672 	-0.200166 	0
0.0885603 	-149.758 	44.2684 	-0.198928 	0
0.0891317 	-149.679 	44.2699 	-0.197503 	0
0.089703 	-149.6 	44.2715 	-0.196078 	0
0.0902744 	-149.522 	44.2731 	-0.194654 	0
0.0908457 	-149.443 	44.2746 	-0.19324 	0
0.0914171 	-149.369 	44.2763 	-0.192014 	0
0.0919884 	-149.298 	44.2787 	-0.190573 	0
0.0925598 	-149.228 	44.2813 	-0.189044 	0
0.0931312 	-149.158 	44.284 	-0.187515 	0
0.0937025 	-149.087 	44.2866 	-0.185986 	0
0.0942739 	-149.021 	44.2894 	-0.184637 	0
0.0948452 	-148.957 	44.293 	-0.183106 	0
0.0954166 	-148.895 	44.2969 	-0.181495 	0
0.0959879 	-148.833 	44.3009 	-0.179884 	0
0.0965593 	-148.772 	44.3049 	-0.178352 	0
0.0971307 	-148.714 	44.3094 	-0.176846 	0
0.097702 	-148.659 	44.3149 	-0.175168 	0
0.0982734 	-148.604 	44.3204 	-0.17349 	0
0.0988447 	-148.55 	44.3259 	-0.171905 	0
0.0994161 	-148.499 	44.3325 	-0.170285 	0
0.0999874 	-148.451 	44.3398 	-0.16855 	0
0.100559 	-148.402 	44.3472 	-0.166821 	0
0.10113 	-148.356 	44.3551 	-0.16523 	0
0.101702 	-148.313 	44.3646 	-0.163449 	0
0.102273 	-148.27 	44.374 	-0.161675 	0
0.102844 	-148.23 	44.3844 	-0.160013 	0
0.103416 	-148.191 	44.3964 	-0.158192 	0
0.103987 	-148.154 	44.4083 	-0.156462 	0
0.104558 	-148.12 	44.4225 	-0.154648 	0
0.10513 	-148.086 	44.4372 	-0.152828 	0
0.105701 	-148.056 	44.4537 	-0.151036 	0
0.106272 	-148.026 	44.4713 	-0.149193 	0
0.106844 	-147.999 	44.4912 	-0.147359 	0
0.107415 	-147.974 	44.512 	-0.145543 	0
0.107986 	-147.95 	44.5359 	-0.143624 	0
0.108558 	-147.929 	44.5617 	-0.141773 	0
0.109129 	-147.91 	44.5898 	-0.139904 	0
0.109701 	-147.893 	44.6207 	-0.138017 	0
0.110272 	-147.878 	44.6548 	-0.136109 	0
0.110843 	-147.866 	44.6924 	-0.134203 	0
0.111415 	-147.856 	44.7152 	-0.132415 	0
0.111986 	-147.846 	43.7664 	-0.117226 	0
0.112557 	-147.858 	39.6803 	-0.0650995 	0
0.113129 	-147.886 	33.6079 	-0.0227751 	0
0.1137 	-147.912 	1.5664e-10 	-5.63374e-15 	0
