0 	65.8948 	0 	0 	0
0.000571357 	66.118 	11.1176 	0.130951 	0
0.00114271 	66.6198 	9.69622 	0.328974 	0
0.00171407 	67.0862 	9.56102 	0.503872 	0
0.00228543 	67.392 	10.2985 	0.640636 	0
0.00285678 	67.5322 	11.6895 	0.74229 	0
0.00342814 	67.6409 	13.2738 	0.802008 	0
0.0039995 	67.6679 	14.8093 	0.826072 	0
0.00457085 	67.6277 	16.222 	0.819912 	0
0.00514221 	67.5287 	17.517 	0.7929 	0
0.00571357 	67.3341 	18.6764 	0.748151 	0
0.00628492 	67.0412 	19.7472 	0.693184 	0
0.00685628 	66.6462 	20.7446 	0.631173 	0
0.00742764 	66.0869 	21.6703 	0.561344 	0
0.00799899 	65.4649 	22.5477 	0.489462 	0
0.00857035 	64.7481 	23.3884 	0.413657 	0
0.00914171 	63.8453 	24.2025 	0.332085 	0
0.00971307 	62.8388 	25.0192 	0.247257 	0
0.0102844 	61.8523 	25.8699 	0.162104 	0
0.0108558 	60.6363 	26.7843 	0.0733039 	0
0.0114271 	59.285 	27.7991 	-0.0189851 	0
0.0119985 	57.8474 	28.9642 	-0.138897 	0
0.0125698 	57.0422 	30.096 	-0.219491 	0
0.0131412 	62.1657 	31.4099 	-0.268496 	0
0.0137126 	61.695 	31.6077 	-0.371483 	0
0.0142839 	60.1665 	31.9124 	-0.462797 	0
0.0148553 	58.3186 	32.5666 	-0.538183 	0
0.0154266 	56.4029 	33.216 	-0.60864 	0
0.015998 	54.3443 	33.7383 	-0.680243 	0
0.0165693 	52.2816 	34.2167 	-0.747334 	0
0.0171407 	50.2304 	34.6658 	-0.811117 	0
0.0177121 	48.1993 	35.0898 	-0.871334 	0
0.0182834 	46.1929 	35.4934 	-0.928444 	0
0.0188548 	43.9969 	35.8814 	-0.982225 	0
0.0194261 	42.0412 	36.2441 	-1.03187 	0
0.0199975 	39.946 	36.6031 	-1.08019 	0
0.0205688 	37.9833 	36.9364 	-1.12333 	0
0.0211402 	36.0311 	37.2663 	-1.16594 	0
0.0217116 	34.0392 	37.5772 	-1.20356 	0
0.0222829 	31.9653 	37.8907 	-1.24112 	0
0.0228543 	30.2183 	38.1695 	-1.27371 	0
0.0234256 	28.2144 	38.4545 	-1.30532 	0
0.023997 	26.514 	38.7158 	-1.33547 	0
0.0245683 	24.5976 	38.9641 	-1.36091 	0
0.0251397 	22.6812 	39.2125 	-1.38635 	0
0.0257111 	21.0885 	39.4247 	-1.40998 	0
0.0262824 	19.2807 	39.6213 	-1.42868 	0
0.0268538 	17.4728 	39.818 	-1.44739 	0
0.0274251 	15.8503 	39.9945 	-1.46608 	0
0.0279965 	14.2782 	40.1188 	-1.47856 	0
0.0285678 	12.6049 	40.2467 	-1.4901 	0
0.0291392 	10.9317 	40.3746 	-1.50164 	0
0.0297106 	9.5664 	40.4655 	-1.51339 	0
0.0302819 	8.05804 	40.5237 	-1.51759 	0
0.0308533 	6.54968 	40.5818 	-1.5218 	0
0.0314246 	5.04132 	40.64 	-1.52601 	0
0.031996 	3.56891 	40.6955 	-1.53039 	0
0.0325673 	2.43524 	40.7132 	-1.53273 	0
0.0331387 	1.11378 	40.7363 	-1.53171 	0
0.0337101 	-0.207675 	40.7595 	-1.53069 	0
0.0342814 	-1.52913 	40.7826 	-1.52967 	0
0.0348528 	-2.81811 	40.8058 	-1.52898 	0
0.0354241 	-3.7936 	40.8346 	-1.52899 	0
0.0359955 	-4.92875 	40.8677 	-1.5254 	0
0.0365668 	-6.0639 	40.9008 	-1.5218 	0
0.0371382 	-7.19904 	40.9339 	-1.51821 	0
0.0377095 	-8.33419 	40.967 	-1.51461 	0
0.0382809 	-9.32884 	40.9983 	-1.51244 	0
0.0388523 	-10.2261 	41.0315 	-1.50787 	0
0.0394236 	-11.1868 	41.0667 	-1.50148 	0
0.039995 	-12.1476 	41.1018 	-1.49508 	0
0.0405663 	-13.1083 	41.1369 	-1.48869 	0
0.0411377 	-14.069 	41.172 	-1.4823 	0
0.041709 	-15.0298 	41.2072 	-1.47591 	0
0.0422804 	-15.7527 	41.2304 	-1.47179 	0
0.0428518 	-16.548 	41.2547 	-1.4629 	0
0.0434231 	-17.3432 	41.2789 	-1.45401 	0
0.0439945 	-18.1384 	41.3032 	-1.44512 	0
0.0445658 	-18.9336 	41.3274 	-1.43623 	0
0.0451372 	-19.7289 	41.3517 	-1.42734 	0
0.0457085 	-20.5241 	41.376 	-1.41845 	0
0.0462799 	-21.2578 	41.3985 	-1.41049 	0
0.0468513 	-21.8483 	41.4172 	-1.40297 	0
0.0474226 	-22.4911 	41.4376 	-1.39268 	0
0.047994 	-23.1338 	41.458 	-1.38239 	0
0.0485653 	-23.7765 	41.4784 	-1.37211 	0
0.0491367 	-24.4193 	41.4988 	-1.36182 	0
0.049708 	-25.062 	41.5192 	-1.35153 	0
0.0502794 	-25.7048 	41.5395 	-1.34124 	0
0.0508508 	-26.3475 	41.5599 	-1.33095 	0
0.0514221 	-26.8749 	41.5765 	-1.32263 	0
0.0519935 	-27.3684 	41.592 	-1.31252 	0
0.0525648 	-27.8762 	41.608 	-1.30125 	0
0.0531362 	-28.384 	41.624 	-1.28999 	0
0.0537075 	-28.8918 	41.6399 	-1.27872 	0
0.0542789 	-29.3997 	41.6559 	-1.26746 	0
0.0548503 	-29.9075 	41.6719 	-1.25619 	0
0.0554216 	-30.4153 	41.6879 	-1.24493 	0
0.055993 	-30.9231 	41.7039 	-1.23366 	0
0.0565643 	-31.4309 	41.7199 	-1.22239 	0
0.0571357 	-31.8318 	41.7325 	-1.21339 	0
0.057707 	-32.2072 	41.7443 	-1.20302 	0
0.0582784 	-32.589 	41.7565 	-1.19171 	0
0.0588497 	-32.9708 	41.7686 	-1.1804 	0
0.0594211 	-33.3525 	41.7808 	-1.16908 	0
0.0599925 	-33.7343 	41.7929 	-1.15777 	0
0.0605638 	-34.1161 	41.8051 	-1.14645 	0
0.0611352 	-34.4978 	41.8172 	-1.13514 	0
0.0617065 	-34.8796 	41.8294 	-1.12383 	0
0.0622779 	-35.2614 	41.8415 	-1.11251 	0
0.0628492 	-35.6432 	41.8537 	-1.1012 	0
0.0634206 	-35.9895 	41.8647 	-1.09082 	0
0.063992 	-36.2808 	41.8741 	-1.08105 	0
0.0645633 	-36.575 	41.8837 	-1.0697 	0
0.0651347 	-36.8691 	41.8934 	-1.05834 	0
0.065706 	-37.1632 	41.903 	-1.04699 	0
0.0662774 	-37.4573 	41.9126 	-1.03564 	0
0.0668487 	-37.7514 	41.9223 	-1.02429 	0
0.0674201 	-38.0455 	41.9319 	-1.01294 	0
0.0679915 	-38.3397 	41.9415 	-1.00159 	0
0.0685628 	-38.6338 	41.9512 	-0.990238 	0
0.0691342 	-38.9279 	41.9608 	-0.978887 	0
0.0697055 	-39.2196 	41.9704 	-0.967618 	0
0.0702769 	-39.4603 	41.9785 	-0.957741 	0
0.0708482 	-39.6973 	41.9867 	-0.946139 	0
0.0714196 	-39.9344 	41.9949 	-0.934537 	0
0.071991 	-40.1714 	42.0031 	-0.922935 	0
0.0725623 	-40.4084 	42.0114 	-0.911333 	0
0.0731337 	-40.6455 	42.0196 	-0.899731 	0
0.073705 	-40.8825 	42.0278 	-0.888129 	0
0.0742764 	-41.1196 	42.036 	-0.876527 	0
0.0748477 	-41.3566 	42.0442 	-0.864925 	0
0.0754191 	-41.5877 	42.0523 	-0.853609 	0
0.0759905 	-41.7831 	42.0595 	-0.843222 	0
0.0765618 	-41.9736 	42.0667 	-0.831776 	0
0.0771332 	-42.164 	42.0739 	-0.820331 	0
0.0777045 	-42.3545 	42.0811 	-0.808885 	0
0.0782759 	-42.5449 	42.0883 	-0.797439 	0
0.0788472 	-42.7353 	42.0955 	-0.785993 	0
0.0794186 	-42.9258 	42.1027 	-0.774547 	0
0.0799899 	-43.1162 	42.1099 	-0.763102 	0
0.0805613 	-43.2936 	42.1169 	-0.752501 	0
0.0811327 	-43.4515 	42.1236 	-0.741427 	0
0.081704 	-43.6079 	42.1303 	-0.730127 	0
0.0822754 	-43.7644 	42.1369 	-0.718827 	0
0.0828467 	-43.9208 	42.1436 	-0.707527 	0
0.0834181 	-44.0772 	42.1503 	-0.696227 	0
0.0839894 	-44.2336 	42.157 	-0.684927 	0
0.0845608 	-44.39 	42.1637 	-0.67363 	0
0.0851322 	-44.5263 	42.1703 	-0.663244 	0
0.0857035 	-44.657 	42.1768 	-0.652092 	0
0.0862749 	-44.7877 	42.1834 	-0.640939 	0
0.0868462 	-44.9184 	42.1899 	-0.629787 	0
0.0874176 	-45.049 	42.1965 	-0.618635 	0
0.0879889 	-45.1797 	42.203 	-0.607482 	0
0.0885603 	-45.3056 	42.2097 	-0.596895 	0
0.0891317 	-45.417 	42.2165 	-0.585952 	0
0.089703 	-45.5276 	42.2233 	-0.574913 	0
0.0902744 	-45.6382 	42.23 	-0.563875 	0
0.0908457 	-45.7489 	42.2368 	-0.552837 	0
0.0914171 	-45.8595 	42.2435 	-0.541798 	0
0.0919884 	-45.9626 	42.2508 	-0.53133 	0
0.0925598 	-46.0572 	42.2581 	-0.520398 	0
0.0931312 	-46.1518 	42.2654 	-0.509467 	0
0.0937025 	-46.2464 	42.2727 	-0.498535 	0
0.0942739 	-46.341 	42.28 	-0.487604 	0
0.0948452 	-46.4294 	42.288 	-0.477137 	0
0.0954166 	-46.511 	42.2962 	-0.466287 	0
0.0959879 	-46.5926 	42.3044 	-0.455437 	0
0.0965593 	-46.6742 	42.3126 	-0.444588 	0
0.0971307 	-46.7544 	42.3214 	-0.434104 	0
0.097702 	-46.8252 	42.3309 	-0.423331 	0
0.0982734 	-46.896 	42.3404 	-0.412558 	0
0.0988447 	-46.9668 	42.3499 	-0.401785 	0
0.0994161 	-47.0346 	42.3604 	-0.39133 	0
0.0999874 	-47.0964 	42.3715 	-0.380617 	0
0.100559 	-47.1583 	42.3827 	-0.369905 	0
0.10113 	-47.2197 	42.3944 	-0.359436 	0
0.101702 	-47.274 	42.4077 	-0.348791 	0
0.102273 	-47.3283 	42.4209 	-0.338135 	0
0.102844 	-47.3815 	42.4351 	-0.327703 	0
0.103416 	-47.4293 	42.4507 	-0.317099 	0
0.103987 	-47.477 	42.4664 	-0.306494 	0
0.104558 	-47.5212 	42.4844 	-0.296094 	0
0.10513 	-47.5635 	42.5028 	-0.285524 	0
0.105701 	-47.6035 	42.5232 	-0.27514 	0
0.106272 	-47.641 	42.5446 	-0.264625 	0
0.106844 	-47.6763 	42.5685 	-0.254265 	0
0.107415 	-47.7098 	42.5934 	-0.24383 	0
0.107986 	-47.7399 	42.6214 	-0.233519 	0
0.108558 	-47.7678 	42.6238 	-0.223177 	0
0.109129 	-47.792 	42.4949 	-0.210902 	0
0.109701 	-47.8113 	41.9802 	-0.19218 	0
0.110272 	-47.829 	40.7141 	-0.161515 	0
0.110843 	-47.8486 	38.8276 	-0.125311 	0
0.111415 	-47.8681 	36.6539 	-0.0910251 	0
0.111986 	-47.8895 	34.2874 	-0.0611597 	0
0.112557 	-47.9146 	31.5508 	-0.035911 	0
0.113129 	-47.9415 	27.4742 	-0.0147608 	0
0.1137 	-47.9596 	1.14751e-10 	-3.38699e-15 	0
