0.0131412 	-145.247 	20.1437 	-0.00588913 	0
0.0137126 	-145.23 	25.0345 	-0.00594656 	0
0.0142839 	-145.202 	29.0098 	0.0109969 	0
0.0148553 	-145.17 	32.0142 	0.0305055 	0
0.0154266 	-145.148 	33.5734 	0.0318467 	0
0.015998 	-145.124 	34.5518 	0.0275692 	0
0.0165693 	-145.096 	35.3724 	0.0230983 	0
0.0171407 	-145.064 	36.0843 	0.0185655 	0
0.0177121 	-145.029 	36.7161 	0.0140033 	0
0.0182834 	-144.991 	37.2896 	0.00943674 	0
0.0188548 	-144.949 	37.8048 	0.00478285 	0
0.0194261 	-144.903 	38.2752 	0.000222792 	0
0.0199975 	-144.856 	38.7259 	-0.00429031 	0
0.0205688 	-144.802 	39.1257 	-0.00889497 	0
0.0211402 	-144.75 	39.5194 	-0.0133387 	0
0.0217116 	-144.689 	39.8725 	-0.0178722 	0
0.0222829 	-144.631 	40.2257 	-0.0222608 	0
0.0228543 	-144.563 	40.5407 	-0.026681 	0
0.0234256 	-144.495 	40.853 	-0.0311142 	0
0.023997 	-144.427 	41.1506 	-0.0353209 	0
0.0245683 	-144.351 	41.4271 	-0.0396369 	0
0.0251397 	-144.276 	41.7036 	-0.0438952 	0
0.0257111 	-144.199 	41.9637 	-0.0479886 	0
0.0262824 	-144.113 	42.2087 	-0.0521411 	0
0.0268538 	-144.028 	42.4536 	-0.0562936 	0
0.0274251 	-143.947 	42.6929 	-0.0602051 	0
0.0279965 	-143.852 	42.9099 	-0.0641939 	0
0.0285678 	-143.757 	43.127 	-0.0681826 	0
0.0291392 	-143.664 	43.3441 	-0.0720975 	0
0.0297106 	-143.57 	43.5412 	-0.0758069 	0
0.0302819 	-143.465 	43.7093 	-0.0794679 	0
0.0308533 	-143.359 	43.8774 	-0.0831288 	0
0.0314246 	-143.254 	44.0455 	-0.086774 	0
0.031996 	-143.157 	44.2082 	-0.090212 	0
0.0325673 	-143.043 	44.2699 	-0.0934103 	0
0.0331387 	-142.928 	44.3317 	-0.0966087 	0
0.0337101 	-142.813 	44.3934 	-0.099807 	0
0.0342814 	-142.701 	44.4552 	-0.10297 	0
0.0348528 	-142.595 	44.5134 	-0.105999 	0
0.0354241 	-142.474 	44.5094 	-0.108807 	0
0.0359955 	-142.354 	44.5054 	-0.111615 	0
0.0365668 	-142.233 	44.5015 	-0.114424 	0
0.0371382 	-142.112 	44.4975 	-0.117232 	0
0.0377095 	-141.999 	44.4938 	-0.119966 	0
0.0382809 	-141.883 	44.49 	-0.122588 	0
0.0388523 	-141.757 	44.486 	-0.12506 	0
0.0394236 	-141.632 	44.4819 	-0.127532 	0
0.039995 	-141.506 	44.4779 	-0.130004 	0
0.0405663 	-141.38 	44.4739 	-0.132476 	0
0.0411377 	-141.258 	44.47 	-0.134924 	0
0.041709 	-141.143 	44.4662 	-0.137318 	0
0.0422804 	-141.016 	44.4625 	-0.13949 	0
0.0428518 	-140.887 	44.4589 	-0.141597 	0
0.0434231 	-140.757 	44.4553 	-0.143705 	0
0.0439945 	-140.628 	44.4516 	-0.145812 	0
0.0445658 	-140.498 	44.448 	-0.147919 	0
0.0451372 	-140.369 	44.4444 	-0.150026 	0
0.0457085 	-140.25 	44.441 	-0.152088 	0
0.0462799 	-140.128 	44.4376 	-0.154057 	0
0.0468513 	-139.997 	44.4343 	-0.155738 	0
0.0474226 	-139.866 	44.4311 	-0.157418 	0
0.047994 	-139.735 	44.4278 	-0.159099 	0
0.0485653 	-139.604 	44.4245 	-0.16078 	0
0.0491367 	-139.473 	44.4212 	-0.162461 	0
0.049708 	-139.342 	44.418 	-0.164142 	0
0.0502794 	-139.217 	44.4148 	-0.165818 	0
0.0508508 	-139.096 	44.4118 	-0.167491 	0
0.0514221 	-138.97 	44.4089 	-0.16888 	0
0.0519935 	-138.84 	44.406 	-0.170093 	0
0.0525648 	-138.71 	44.4031 	-0.171306 	0
0.0531362 	-138.581 	44.4002 	-0.172519 	0
0.0537075 	-138.451 	44.3973 	-0.173733 	0
0.0542789 	-138.321 	44.3944 	-0.174946 	0
0.0548503 	-138.191 	44.3915 	-0.176159 	0
0.0554216 	-138.062 	44.3886 	-0.177373 	0
0.055993 	-137.942 	44.3859 	-0.178616 	0
0.0565643 	-137.822 	44.3833 	-0.179859 	0
0.0571357 	-137.701 	44.3808 	-0.180707 	0
0.057707 	-137.579 	44.3785 	-0.181407 	0
0.0582784 	-137.457 	44.3761 	-0.182107 	0
0.0588497 	-137.336 	44.3737 	-0.182807 	0
0.0594211 	-137.214 	44.3713 	-0.183507 	0
0.0599925 	-137.092 	44.369 	-0.184206 	0
0.0605638 	-136.971 	44.3666 	-0.184906 	0
0.0611352 	-136.849 	44.3642 	-0.185606 	0
0.0617065 	-136.728 	44.3619 	-0.186309 	0
0.0622779 	-136.615 	44.3597 	-0.187073 	0
0.0628492 	-136.502 	44.3575 	-0.187838 	0
0.0634206 	-136.389 	44.3555 	-0.188401 	0
0.063992 	-136.276 	44.3537 	-0.188643 	0
0.0645633 	-136.163 	44.3518 	-0.188886 	0
0.0651347 	-136.05 	44.35 	-0.189129 	0
0.065706 	-135.936 	44.3482 	-0.189371 	0
0.0662774 	-135.823 	44.3463 	-0.189614 	0
0.0668487 	-135.71 	44.3445 	-0.189856 	0
0.0674201 	-135.597 	44.3427 	-0.190099 	0
0.0679915 	-135.483 	44.3408 	-0.190342 	0
0.0685628 	-135.376 	44.3391 	-0.190651 	0
0.0691342 	-135.27 	44.3375 	-0.190989 	0
0.0697055 	-135.165 	44.3358 	-0.191305 	0
0.0702769 	-135.06 	44.3346 	-0.19116 	0
0.0708482 	-134.954 	44.3333 	-0.191016 	0
0.0714196 	-134.849 	44.332 	-0.190871 	0
0.071991 	-134.744 	44.3308 	-0.190727 	0
0.0725623 	-134.638 	44.3295 	-0.190582 	0
0.0731337 	-134.533 	44.3282 	-0.190438 	0
0.073705 	-134.427 	44.327 	-0.190293 	0
0.0742764 	-134.325 	44.3258 	-0.190207 	0
0.0748477 	-134.227 	44.3247 	-0.190184 	0
0.0754191 	-134.129 	44.3237 	-0.190096 	0
0.0759905 	-134.035 	44.323 	-0.189647 	0
0.0765618 	-133.941 	44.3224 	-0.189198 	0
0.0771332 	-133.847 	44.3218 	-0.188749 	0
0.0777045 	-133.752 	44.3212 	-0.188299 	0
0.0782759 	-133.658 	44.3206 	-0.18785 	0
0.0788472 	-133.564 	44.32 	-0.187401 	0
0.0794186 	-133.473 	44.3195 	-0.187029 	0
0.0799899 	-133.385 	44.319 	-0.186719 	0
0.0805613 	-133.299 	44.3188 	-0.186214 	0
0.0811327 	-133.216 	44.3189 	-0.185535 	0
0.081704 	-133.132 	44.319 	-0.184855 	0
0.0822754 	-133.049 	44.3191 	-0.184175 	0
0.0828467 	-132.965 	44.3192 	-0.183496 	0
0.0834181 	-132.882 	44.3193 	-0.182816 	0
0.0839894 	-132.802 	44.3195 	-0.182253 	0
0.0845608 	-132.724 	44.3198 	-0.181724 	0
0.0851322 	-132.651 	44.3207 	-0.180869 	0
0.0857035 	-132.577 	44.3216 	-0.180013 	0
0.0862749 	-132.504 	44.3225 	-0.179158 	0
0.0868462 	-132.43 	44.3234 	-0.178302 	0
0.0874176 	-132.356 	44.3243 	-0.177447 	0
0.0879889 	-132.288 	44.3253 	-0.176749 	0
0.0885603 	-132.221 	44.3266 	-0.175925 	0
0.0891317 	-132.156 	44.3284 	-0.174937 	0
0.089703 	-132.092 	44.3302 	-0.173948 	0
0.0902744 	-132.027 	44.3321 	-0.17296 	0
0.0908457 	-131.963 	44.3339 	-0.171981 	0
0.0914171 	-131.903 	44.3358 	-0.17116 	0
0.0919884 	-131.845 	44.3384 	-0.170147 	0
0.0925598 	-131.789 	44.3413 	-0.169058 	0
0.0931312 	-131.733 	44.3442 	-0.167969 	0
0.0937025 	-131.677 	44.3471 	-0.166879 	0
0.0942739 	-131.624 	44.35 	-0.165943 	0
0.0948452 	-131.574 	44.3539 	-0.164847 	0
0.0954166 	-131.525 	44.358 	-0.163682 	0
0.0959879 	-131.476 	44.3622 	-0.162516 	0
0.0965593 	-131.428 	44.3664 	-0.161419 	0
0.0971307 	-131.384 	44.3712 	-0.160344 	0
0.097702 	-131.341 	44.3769 	-0.159122 	0
0.0982734 	-131.299 	44.3826 	-0.1579 	0
0.0988447 	-131.258 	44.3884 	-0.156758 	0
0.0994161 	-131.22 	44.3951 	-0.15559 	0
0.0999874 	-131.183 	44.4027 	-0.154326 	0
0.100559 	-131.146 	44.4102 	-0.153067 	0
0.10113 	-131.113 	44.4184 	-0.15193 	0
0.101702 	-131.081 	44.428 	-0.150635 	0
0.102273 	-131.049 	44.4377 	-0.149348 	0
0.102844 	-131.021 	44.4483 	-0.148162 	0
0.103416 	-130.993 	44.4604 	-0.146846 	0
0.103987 	-130.967 	44.4726 	-0.145609 	0
0.104558 	-130.943 	44.487 	-0.144311 	0
0.10513 	-130.92 	44.5018 	-0.14301 	0
0.105701 	-130.9 	44.5185 	-0.141741 	0
0.106272 	-130.88 	44.5363 	-0.140435 	0
0.106844 	-130.862 	44.5562 	-0.139145 	0
0.107415 	-130.846 	44.5773 	-0.137875 	0
0.107986 	-130.832 	44.6013 	-0.136532 	0
0.108558 	-130.819 	44.6272 	-0.135252 	0
0.109129 	-130.808 	44.6554 	-0.133966 	0
0.109701 	-130.798 	44.6864 	-0.132675 	0
0.110272 	-130.79 	44.7206 	-0.131378 	0
0.110843 	-130.784 	44.7582 	-0.130098 	0
0.111415 	-130.78 	44.7815 	-0.128933 	0
0.111986 	-130.774 	43.8394 	-0.114575 	0
0.112557 	-130.789 	39.7582 	-0.0633929 	0
0.113129 	-130.818 	33.6844 	-0.0219834 	0
0.1137 	-130.845 	1.57008e-10 	-5.44534e-15 	0
