0.0131412 	-156.327 	20.6445 	-0.0121976 	0
0.0137126 	-156.315 	25.0482 	-0.0263391 	0
0.0142839 	-156.275 	28.4395 	-0.0294106 	0
0.0148553 	-156.219 	31.513 	-0.022708 	0
0.0154266 	-156.155 	33.7013 	-0.0196486 	0
0.015998 	-156.088 	34.8554 	-0.028676 	0
0.0165693 	-156.011 	35.6892 	-0.0397486 	0
0.0171407 	-155.925 	36.4001 	-0.0506573 	0
0.0177121 	-155.828 	37.0297 	-0.0614263 	0
0.0182834 	-155.722 	37.6003 	-0.0720519 	0
0.0188548 	-155.608 	38.1124 	-0.0823465 	0
0.0194261 	-155.481 	38.5793 	-0.0925774 	0
0.0199975 	-155.351 	39.0264 	-0.102617 	0
0.0205688 	-155.204 	39.4225 	-0.112419 	0
0.0211402 	-155.056 	39.8122 	-0.122154 	0
0.0217116 	-154.893 	40.1614 	-0.131547 	0
0.0222829 	-154.732 	40.5107 	-0.140876 	0
0.0228543 	-154.549 	40.8214 	-0.149958 	0
0.0234256 	-154.37 	41.1297 	-0.158854 	0
0.023997 	-154.177 	41.4228 	-0.167715 	0
0.0245683 	-153.979 	41.6952 	-0.176139 	0
0.0251397 	-153.781 	41.9675 	-0.184562 	0
0.0257111 	-153.564 	42.223 	-0.19284 	0
0.0262824 	-153.346 	42.4638 	-0.200682 	0
0.0268538 	-153.127 	42.7045 	-0.208524 	0
0.0274251 	-152.9 	42.9391 	-0.216326 	0
0.0279965 	-152.657 	43.1512 	-0.223665 	0
0.0285678 	-152.419 	43.3635 	-0.230931 	0
0.0291392 	-152.18 	43.5757 	-0.238198 	0
0.0297106 	-151.924 	43.7666 	-0.245184 	0
0.0302819 	-151.664 	43.9278 	-0.251498 	0
0.0308533 	-151.405 	44.089 	-0.257799 	0
0.0314246 	-151.146 	44.2503 	-0.2641 	0
0.031996 	-150.884 	44.4057 	-0.270335 	0
0.0325673 	-150.6 	44.4603 	-0.275364 	0
0.0331387 	-150.326 	44.5153 	-0.280322 	0
0.0337101 	-150.052 	44.5703 	-0.285279 	0
0.0342814 	-149.778 	44.6253 	-0.290237 	0
0.0348528 	-149.502 	44.6764 	-0.295131 	0
0.0354241 	-149.211 	44.6676 	-0.29903 	0
0.0359955 	-148.932 	44.6591 	-0.302898 	0
0.0365668 	-148.652 	44.6507 	-0.306767 	0
0.0371382 	-148.373 	44.6422 	-0.310636 	0
0.0377095 	-148.094 	44.6337 	-0.314504 	0
0.0382809 	-147.807 	44.6254 	-0.318093 	0
0.0388523 	-147.519 	44.6176 	-0.321133 	0
0.0394236 	-147.238 	44.61 	-0.324176 	0
0.039995 	-146.957 	44.6024 	-0.327219 	0
0.0405663 	-146.676 	44.5947 	-0.330262 	0
0.0411377 	-146.395 	44.5871 	-0.333305 	0
0.041709 	-146.114 	44.5795 	-0.336347 	0
0.0422804 	-145.821 	44.5719 	-0.33869 	0
0.0428518 	-145.542 	44.5648 	-0.340887 	0
0.0434231 	-145.264 	44.5577 	-0.343086 	0
0.0439945 	-144.986 	44.5506 	-0.345284 	0
0.0445658 	-144.707 	44.5435 	-0.347483 	0
0.0451372 	-144.429 	44.5364 	-0.349681 	0
0.0457085 	-144.151 	44.5293 	-0.35188 	0
0.0462799 	-143.87 	44.5223 	-0.353828 	0
0.0468513 	-143.589 	44.5155 	-0.355048 	0
0.0474226 	-143.319 	44.509 	-0.356344 	0
0.047994 	-143.048 	44.5025 	-0.35764 	0
0.0485653 	-142.778 	44.4959 	-0.358936 	0
0.0491367 	-142.508 	44.4894 	-0.360232 	0
0.049708 	-142.238 	44.4829 	-0.361528 	0
0.0502794 	-141.968 	44.4764 	-0.362823 	0
0.0508508 	-141.697 	44.4698 	-0.364119 	0
0.0514221 	-141.427 	44.4635 	-0.364758 	0
0.0519935 	-141.164 	44.4575 	-0.365082 	0
0.0525648 	-140.908 	44.4517 	-0.365472 	0
0.0531362 	-140.651 	44.4458 	-0.365862 	0
0.0537075 	-140.395 	44.44 	-0.366252 	0
0.0542789 	-140.138 	44.4341 	-0.366642 	0
0.0548503 	-139.882 	44.4283 	-0.367032 	0
0.0554216 	-139.626 	44.4224 	-0.367422 	0
0.055993 	-139.369 	44.4166 	-0.367811 	0
0.0565643 	-139.113 	44.4107 	-0.368201 	0
0.0571357 	-138.867 	44.4053 	-0.367824 	0
0.057707 	-138.631 	44.4003 	-0.367258 	0
0.0582784 	-138.4 	44.3954 	-0.366777 	0
0.0588497 	-138.17 	44.3905 	-0.366297 	0
0.0594211 	-137.94 	44.3856 	-0.365816 	0
0.0599925 	-137.709 	44.3807 	-0.365336 	0
0.0605638 	-137.479 	44.3758 	-0.364855 	0
0.0611352 	-137.249 	44.3709 	-0.364375 	0
0.0617065 	-137.018 	44.3659 	-0.363894 	0
0.0622779 	-136.788 	44.361 	-0.363414 	0
0.0628492 	-136.558 	44.3561 	-0.362933 	0
0.0634206 	-136.333 	44.3515 	-0.362083 	0
0.063992 	-136.119 	44.3473 	-0.360688 	0
0.0645633 	-135.912 	44.3433 	-0.359459 	0
0.0651347 	-135.706 	44.3393 	-0.358229 	0
0.065706 	-135.499 	44.3352 	-0.356999 	0
0.0662774 	-135.293 	44.3312 	-0.35577 	0
0.0668487 	-135.086 	44.3272 	-0.35454 	0
0.0674201 	-134.88 	44.3232 	-0.353311 	0
0.0679915 	-134.674 	44.3192 	-0.352081 	0
0.0685628 	-134.467 	44.3152 	-0.350852 	0
0.0691342 	-134.261 	44.3112 	-0.349622 	0
0.0697055 	-134.055 	44.3072 	-0.348353 	0
0.0702769 	-133.86 	44.3039 	-0.34627 	0
0.0708482 	-133.674 	44.3007 	-0.344409 	0
0.0714196 	-133.487 	44.2976 	-0.342548 	0
0.071991 	-133.301 	44.2944 	-0.340688 	0
0.0725623 	-133.114 	44.2912 	-0.338827 	0
0.0731337 	-132.927 	44.2881 	-0.336966 	0
0.073705 	-132.741 	44.2849 	-0.335105 	0
0.0742764 	-132.554 	44.2818 	-0.333244 	0
0.0748477 	-132.368 	44.2786 	-0.331383 	0
0.0754191 	-132.184 	44.2756 	-0.329419 	0
0.0759905 	-132.015 	44.2732 	-0.32695 	0
0.0765618 	-131.852 	44.271 	-0.324653 	0
0.0771332 	-131.688 	44.2688 	-0.322356 	0
0.0777045 	-131.525 	44.2666 	-0.320059 	0
0.0782759 	-131.361 	44.2644 	-0.317762 	0
0.0788472 	-131.198 	44.2622 	-0.315465 	0
0.0794186 	-131.034 	44.2599 	-0.313168 	0
0.0799899 	-130.871 	44.2577 	-0.310871 	0
0.0805613 	-130.715 	44.2559 	-0.308284 	0
0.0811327 	-130.571 	44.2546 	-0.30561 	0
0.081704 	-130.428 	44.2534 	-0.302996 	0
0.0822754 	-130.285 	44.2521 	-0.300382 	0
0.0828467 	-130.142 	44.2508 	-0.297768 	0
0.0834181 	-129.999 	44.2496 	-0.295154 	0
0.0839894 	-129.856 	44.2483 	-0.29254 	0
0.0845608 	-129.714 	44.247 	-0.289925 	0
0.0851322 	-129.585 	44.2467 	-0.286918 	0
0.0857035 	-129.461 	44.2464 	-0.284072 	0
0.0862749 	-129.336 	44.2461 	-0.281226 	0
0.0868462 	-129.211 	44.2458 	-0.278379 	0
0.0874176 	-129.086 	44.2456 	-0.275533 	0
0.0879889 	-128.961 	44.2453 	-0.272686 	0
0.0885603 	-128.842 	44.2454 	-0.269663 	0
0.0891317 	-128.732 	44.2462 	-0.266608 	0
0.089703 	-128.623 	44.247 	-0.263591 	0
0.0902744 	-128.514 	44.2478 	-0.260573 	0
0.0908457 	-128.405 	44.2486 	-0.257556 	0
0.0914171 	-128.296 	44.2494 	-0.254539 	0
0.0919884 	-128.195 	44.2511 	-0.251309 	0
0.0925598 	-128.1 	44.2531 	-0.248165 	0
0.0931312 	-128.005 	44.2551 	-0.245021 	0
0.0937025 	-127.91 	44.2572 	-0.241877 	0
0.0942739 	-127.815 	44.2592 	-0.238734 	0
0.0948452 	-127.727 	44.2622 	-0.235416 	0
0.0954166 	-127.644 	44.2656 	-0.232179 	0
0.0959879 	-127.561 	44.2691 	-0.228942 	0
0.0965593 	-127.478 	44.2725 	-0.225705 	0
0.0971307 	-127.398 	44.2765 	-0.222359 	0
0.097702 	-127.325 	44.2816 	-0.219045 	0
0.0982734 	-127.253 	44.2867 	-0.215739 	0
0.0988447 	-127.18 	44.2918 	-0.212434 	0
0.0994161 	-127.112 	44.298 	-0.20902 	0
0.0999874 	-127.049 	44.305 	-0.205664 	0
0.100559 	-126.985 	44.3121 	-0.202309 	0
0.10113 	-126.923 	44.3196 	-0.198887 	0
0.101702 	-126.868 	44.3289 	-0.195484 	0
0.102273 	-126.812 	44.3382 	-0.192093 	0
0.102844 	-126.759 	44.3483 	-0.188633 	0
0.103416 	-126.711 	44.3601 	-0.185218 	0
0.103987 	-126.662 	44.3719 	-0.181803 	0
0.104558 	-126.619 	44.3861 	-0.178322 	0
0.10513 	-126.576 	44.4006 	-0.174891 	0
0.105701 	-126.537 	44.4172 	-0.171408 	0
0.106272 	-126.5 	44.4348 	-0.167968 	0
0.106844 	-126.466 	44.4546 	-0.164485 	0
0.107415 	-126.434 	44.4756 	-0.161029 	0
0.107986 	-126.405 	44.4996 	-0.157559 	0
0.108558 	-126.379 	44.5255 	-0.154081 	0
0.109129 	-126.354 	44.5538 	-0.150612 	0
0.109701 	-126.333 	44.585 	-0.147154 	0
0.110272 	-126.314 	44.6194 	-0.143684 	0
0.110843 	-126.298 	44.6399 	-0.140355 	0
0.111415 	-126.281 	44.3034 	-0.132514 	0
0.111986 	-126.276 	41.8955 	-0.0948377 	0
0.112557 	-126.285 	37.8284 	-0.0512902 	0
0.113129 	-126.308 	32.4556 	-0.0195421 	0
0.1137 	-126.331 	1.46061e-10 	-4.99728e-15 	0
