0 	-189.97 	0 	0 	0
0.000571357 	-189.79 	-1.39187 	0.209469 	0
0.00114271 	-189.469 	-2.55071 	0.679626 	0
0.00171407 	-189.367 	-3.08822 	1.12707 	0
0.00228543 	-189.497 	-3.25811 	1.49078 	0
0.00285678 	-189.768 	-3.2114 	1.77249 	0
0.00342814 	-190.105 	-3.01693 	1.97913 	0
0.0039995 	-190.44 	-2.73113 	2.12475 	0
0.00457085 	-190.733 	-2.37919 	2.21627 	0
0.00514221 	-190.953 	-1.9903 	2.26164 	0
0.00571357 	-191.092 	-1.57318 	2.26476 	0
0.00628492 	-191.144 	-1.14522 	2.23085 	0
0.00685628 	-191.113 	-0.716578 	2.1629 	0
0.00742764 	-191.005 	-0.292904 	2.06307 	0
0.00799899 	-190.809 	0.124629 	1.92986 	0
0.00857035 	-190.518 	0.539944 	1.76656 	0
0.00914171 	-190.073 	1.00526 	1.56408 	0
0.00971307 	-189.501 	1.58797 	1.32003 	0
0.0102844 	-188.84 	2.51066 	1.01495 	0
0.0108558 	-188.179 	4.14247 	0.641227 	0
0.0114271 	-187.562 	6.7527 	0.228798 	0
0.0119985 	-186.961 	10.4878 	-0.17 	0
0.0125698 	-186.403 	14.4098 	-0.446464 	0
0.0131412 	-185.436 	21.3761 	-0.627596 	0
0.0137126 	-184.87 	27.024 	-0.587906 	0
0.0142839 	-184.744 	30.1005 	-0.625124 	0
0.0148553 	-184.559 	32.595 	-0.680435 	0
0.0154266 	-184.296 	34.8162 	-0.727011 	0
0.015998 	-183.958 	36.1668 	-0.766113 	0
0.0165693 	-183.564 	36.9773 	-0.799117 	0
0.0171407 	-183.114 	37.6237 	-0.828737 	0
0.0177121 	-182.612 	38.1992 	-0.85615 	0
0.0182834 	-182.069 	38.7218 	-0.881775 	0
0.0188548 	-181.47 	39.1906 	-0.905917 	0
0.0194261 	-180.835 	39.6185 	-0.928044 	0
0.0199975 	-180.183 	40.0282 	-0.949463 	0
0.0205688 	-179.467 	40.3898 	-0.969177 	0
0.0211402 	-178.754 	40.7462 	-0.988276 	0
0.0217116 	-177.985 	41.0639 	-1.00588 	0
0.0222829 	-177.225 	41.3822 	-1.02325 	0
0.0228543 	-176.413 	41.6639 	-1.03876 	0
0.0234256 	-175.595 	41.9431 	-1.05419 	0
0.023997 	-174.773 	42.2089 	-1.06851 	0
0.0245683 	-173.915 	42.4542 	-1.08185 	0
0.0251397 	-173.058 	42.6996 	-1.09518 	0
0.0257111 	-172.195 	42.93 	-1.10717 	0
0.0262824 	-171.304 	43.1457 	-1.11824 	0
0.0268538 	-170.413 	43.3614 	-1.12931 	0
0.0274251 	-169.532 	43.5713 	-1.13983 	0
0.0279965 	-168.62 	43.7561 	-1.14872 	0
0.0285678 	-167.708 	43.941 	-1.15761 	0
0.0291392 	-166.797 	44.1259 	-1.1665 	0
0.0297106 	-165.895 	44.2868 	-1.17392 	0
0.0302819 	-164.972 	44.4116 	-1.17924 	0
0.0308533 	-164.05 	44.5363 	-1.18455 	0
0.0314246 	-163.127 	44.6611 	-1.18987 	0
0.031996 	-162.223 	44.7815 	-1.19504 	0
0.0325673 	-161.32 	44.8036 	-1.19557 	0
0.0331387 	-160.417 	44.8257 	-1.1961 	0
0.0337101 	-159.514 	44.8479 	-1.19663 	0
0.0342814 	-158.611 	44.87 	-1.19716 	0
0.0348528 	-157.729 	44.8903 	-1.19778 	0
0.0354241 	-156.879 	44.8633 	-1.19536 	0
0.0359955 	-156.029 	44.8362 	-1.19293 	0
0.0365668 	-155.179 	44.8092 	-1.19051 	0
0.0371382 	-154.329 	44.7821 	-1.18808 	0
0.0377095 	-153.485 	44.7553 	-1.18579 	0
0.0382809 	-152.668 	44.731 	-1.18312 	0
0.0388523 	-151.882 	44.711 	-1.17918 	0
0.0394236 	-151.095 	44.6909 	-1.17525 	0
0.039995 	-150.308 	44.6709 	-1.17132 	0
0.0405663 	-149.521 	44.6508 	-1.16738 	0
0.0411377 	-148.735 	44.6307 	-1.16345 	0
0.041709 	-147.961 	44.611 	-1.1599 	0
0.0422804 	-147.234 	44.5927 	-1.15493 	0
0.0428518 	-146.521 	44.5747 	-1.14954 	0
0.0434231 	-145.807 	44.5567 	-1.14415 	0
0.0439945 	-145.094 	44.5388 	-1.13875 	0
0.0445658 	-144.381 	44.5208 	-1.13336 	0
0.0451372 	-143.667 	44.5028 	-1.12797 	0
0.0457085 	-142.96 	44.4851 	-1.12282 	0
0.0462799 	-142.275 	44.4679 	-1.11742 	0
0.0468513 	-141.643 	44.4524 	-1.11077 	0
0.0474226 	-141.011 	44.4369 	-1.10411 	0
0.047994 	-140.379 	44.4213 	-1.09745 	0
0.0485653 	-139.747 	44.4058 	-1.09079 	0
0.0491367 	-139.115 	44.3903 	-1.08413 	0
0.049708 	-138.483 	44.3748 	-1.07748 	0
0.0502794 	-137.852 	44.3593 	-1.07088 	0
0.0508508 	-137.228 	44.3439 	-1.06462 	0
0.0514221 	-136.652 	44.3301 	-1.05751 	0
0.0519935 	-136.107 	44.3171 	-1.04988 	0
0.0525648 	-135.561 	44.3041 	-1.04225 	0
0.0531362 	-135.015 	44.2911 	-1.03463 	0
0.0537075 	-134.469 	44.2781 	-1.027 	0
0.0542789 	-133.924 	44.2651 	-1.01937 	0
0.0548503 	-133.378 	44.2521 	-1.01174 	0
0.0554216 	-132.832 	44.2391 	-1.00411 	0
0.055993 	-132.289 	44.2262 	-0.996661 	0
0.0565643 	-131.749 	44.2134 	-0.989398 	0
0.0571357 	-131.277 	44.2025 	-0.981525 	0
0.057707 	-130.83 	44.1923 	-0.973423 	0
0.0582784 	-130.383 	44.1821 	-0.965321 	0
0.0588497 	-129.937 	44.1719 	-0.957219 	0
0.0594211 	-129.49 	44.1618 	-0.949116 	0
0.0599925 	-129.043 	44.1516 	-0.941014 	0
0.0605638 	-128.597 	44.1414 	-0.932912 	0
0.0611352 	-128.15 	44.1312 	-0.92481 	0
0.0617065 	-127.703 	44.121 	-0.916708 	0
0.0622779 	-127.258 	44.1109 	-0.908731 	0
0.0628492 	-126.815 	44.1008 	-0.900943 	0
0.0634206 	-126.4 	44.0916 	-0.892896 	0
0.063992 	-126.032 	44.0837 	-0.884436 	0
0.0645633 	-125.663 	44.0758 	-0.875976 	0
0.0651347 	-125.294 	44.0679 	-0.867516 	0
0.065706 	-124.926 	44.06 	-0.859056 	0
0.0662774 	-124.557 	44.0521 	-0.850597 	0
0.0668487 	-124.188 	44.0442 	-0.842137 	0
0.0674201 	-123.82 	44.0363 	-0.833677 	0
0.0679915 	-123.451 	44.0284 	-0.825217 	0
0.0685628 	-123.083 	44.0205 	-0.816773 	0
0.0691342 	-122.716 	44.0127 	-0.808585 	0
0.0697055 	-122.352 	44.0049 	-0.800367 	0
0.0702769 	-122.04 	43.9988 	-0.791531 	0
0.0708482 	-121.728 	43.9927 	-0.782696 	0
0.0714196 	-121.416 	43.9866 	-0.77386 	0
0.071991 	-121.104 	43.9805 	-0.765024 	0
0.0725623 	-120.792 	43.9744 	-0.756188 	0
0.0731337 	-120.48 	43.9683 	-0.747352 	0
0.073705 	-120.168 	43.9622 	-0.738517 	0
0.0742764 	-119.856 	43.9561 	-0.729681 	0
0.0748477 	-119.545 	43.95 	-0.721065 	0
0.0754191 	-119.242 	43.9442 	-0.712429 	0
0.0759905 	-118.981 	43.9397 	-0.703556 	0
0.0765618 	-118.721 	43.9353 	-0.694682 	0
0.0771332 	-118.46 	43.9309 	-0.685809 	0
0.0777045 	-118.2 	43.9264 	-0.676936 	0
0.0782759 	-117.939 	43.922 	-0.668062 	0
0.0788472 	-117.678 	43.9175 	-0.659189 	0
0.0794186 	-117.418 	43.9131 	-0.650328 	0
0.0799899 	-117.158 	43.9086 	-0.641669 	0
0.0805613 	-116.919 	43.905 	-0.6329 	0
0.0811327 	-116.699 	43.902 	-0.624032 	0
0.081704 	-116.479 	43.899 	-0.615163 	0
0.0822754 	-116.26 	43.896 	-0.606295 	0
0.0828467 	-116.04 	43.893 	-0.597427 	0
0.0834181 	-115.82 	43.89 	-0.588558 	0
0.0839894 	-115.6 	43.887 	-0.579755 	0
0.0845608 	-115.381 	43.884 	-0.571081 	0
0.0851322 	-115.193 	43.8824 	-0.562244 	0
0.0857035 	-115.006 	43.8808 	-0.553407 	0
0.0862749 	-114.819 	43.8791 	-0.544571 	0
0.0868462 	-114.631 	43.8775 	-0.535734 	0
0.0874176 	-114.444 	43.8759 	-0.526897 	0
0.0879889 	-114.257 	43.8742 	-0.518168 	0
0.0885603 	-114.081 	43.8732 	-0.509446 	0
0.0891317 	-113.921 	43.8729 	-0.500643 	0
0.089703 	-113.76 	43.8726 	-0.49184 	0
0.0902744 	-113.599 	43.8724 	-0.483036 	0
0.0908457 	-113.439 	43.8721 	-0.474233 	0
0.0914171 	-113.278 	43.8718 	-0.465551 	0
0.0919884 	-113.133 	43.8726 	-0.456822 	0
0.0925598 	-112.995 	43.8737 	-0.448056 	0
0.0931312 	-112.856 	43.8749 	-0.43929 	0
0.0937025 	-112.717 	43.8761 	-0.430524 	0
0.0942739 	-112.579 	43.8773 	-0.421854 	0
0.0948452 	-112.453 	43.8796 	-0.413156 	0
0.0954166 	-112.333 	43.8823 	-0.404422 	0
0.0959879 	-112.213 	43.8851 	-0.395689 	0
0.0965593 	-112.092 	43.8879 	-0.386977 	0
0.0971307 	-111.978 	43.8913 	-0.378352 	0
0.097702 	-111.873 	43.8959 	-0.369651 	0
0.0982734 	-111.768 	43.9005 	-0.36095 	0
0.0988447 	-111.663 	43.905 	-0.352284 	0
0.0994161 	-111.566 	43.9108 	-0.343664 	0
0.0999874 	-111.475 	43.9174 	-0.334992 	0
0.100559 	-111.383 	43.9241 	-0.326321 	0
0.10113 	-111.294 	43.9314 	-0.31774 	0
0.101702 	-111.214 	43.9404 	-0.309096 	0
0.102273 	-111.133 	43.9494 	-0.300452 	0
0.102844 	-111.057 	43.9594 	-0.29189 	0
0.103416 	-110.986 	43.9711 	-0.283273 	0
0.103987 	-110.915 	43.9827 	-0.274696 	0
0.104558 	-110.851 	43.9969 	-0.266118 	0
0.10513 	-110.789 	44.0115 	-0.257524 	0
0.105701 	-110.731 	44.028 	-0.249001 	0
0.106272 	-110.676 	44.0458 	-0.24045 	0
0.106844 	-110.625 	44.0658 	-0.23192 	0
0.107415 	-110.576 	44.087 	-0.223393 	0
0.107986 	-110.533 	44.1113 	-0.214903 	0
0.108558 	-110.492 	44.1376 	-0.206405 	0
0.109129 	-110.454 	44.1665 	-0.197911 	0
0.109701 	-110.42 	44.197 	-0.189509 	0
0.110272 	-110.388 	44.1814 	-0.180742 	0
0.110843 	-110.357 	43.7141 	-0.165705 	0
0.111415 	-110.335 	41.9977 	-0.130973 	0
0.111986 	-110.325 	39.0359 	-0.0874256 	0
0.112557 	-110.331 	35.5324 	-0.0504325 	0
0.113129 	-110.351 	30.7762 	-0.0211167 	0
0.1137 	-110.374 	1.38676e-10 	-5.7312e-15 	0
