0.0131412 	-166.565 	21.1596 	-0.0216829 	0
0.0137126 	-166.544 	25.3985 	-0.0499962 	0
0.0142839 	-166.468 	28.5408 	-0.069002 	0
0.0148553 	-166.357 	31.4848 	-0.078041 	0
0.0154266 	-166.212 	33.8306 	-0.0843857 	0
0.015998 	-166.041 	35.1542 	-0.100958 	0
0.0165693 	-165.854 	36.0083 	-0.119969 	0
0.0171407 	-165.643 	36.7128 	-0.138661 	0
0.0177121 	-165.413 	37.3349 	-0.156664 	0
0.0182834 	-165.173 	37.8986 	-0.173931 	0
0.0188548 	-164.906 	38.4034 	-0.190823 	0
0.0194261 	-164.61 	38.8628 	-0.207297 	0
0.0199975 	-164.333 	39.3035 	-0.222859 	0
0.0205688 	-164.001 	39.6921 	-0.23823 	0
0.0211402 	-163.695 	40.0757 	-0.252842 	0
0.0217116 	-163.336 	40.4176 	-0.267189 	0
0.0222829 	-163.015 	40.7608 	-0.280903 	0
0.0228543 	-162.631 	41.0646 	-0.294188 	0
0.0234256 	-162.275 	41.3667 	-0.307012 	0
0.023997 	-161.903 	41.6539 	-0.319445 	0
0.0245683 	-161.496 	41.9194 	-0.331483 	0
0.0251397 	-161.127 	42.1861 	-0.343119 	0
0.0257111 	-160.726 	42.4358 	-0.354304 	0
0.0262824 	-160.296 	42.67 	-0.365079 	0
0.0268538 	-159.903 	42.9054 	-0.375543 	0
0.0274251 	-159.5 	43.1346 	-0.385813 	0
0.0279965 	-159.053 	43.34 	-0.395371 	0
0.0285678 	-158.622 	43.5459 	-0.404831 	0
0.0291392 	-158.211 	43.7525 	-0.414169 	0
0.0297106 	-157.778 	43.9369 	-0.422865 	0
0.0302819 	-157.315 	44.0894 	-0.430638 	0
0.0308533 	-156.865 	44.2425 	-0.438372 	0
0.0314246 	-156.436 	44.3965 	-0.446044 	0
0.031996 	-156.005 	44.5446 	-0.453594 	0
0.0325673 	-155.536 	44.5915 	-0.459029 	0
0.0331387 	-155.068 	44.6383 	-0.464465 	0
0.0337101 	-154.623 	44.6862 	-0.469931 	0
0.0342814 	-154.186 	44.7344 	-0.475409 	0
0.0348528 	-153.748 	44.7788 	-0.480777 	0
0.0354241 	-153.29 	44.7652 	-0.484438 	0
0.0359955 	-152.833 	44.7516 	-0.488099 	0
0.0365668 	-152.386 	44.7383 	-0.491812 	0
0.0371382 	-151.956 	44.7255 	-0.495605 	0
0.0377095 	-151.527 	44.7127 	-0.499398 	0
0.0382809 	-151.093 	44.7004 	-0.502738 	0
0.0388523 	-150.651 	44.689 	-0.505183 	0
0.0394236 	-150.209 	44.6776 	-0.507627 	0
0.039995 	-149.774 	44.6664 	-0.510121 	0
0.0405663 	-149.356 	44.6555 	-0.51274 	0
0.0411377 	-148.939 	44.6447 	-0.515358 	0
0.041709 	-148.521 	44.6339 	-0.517976 	0
0.0422804 	-148.101 	44.6234 	-0.519547 	0
0.0428518 	-147.679 	44.6129 	-0.520808 	0
0.0434231 	-147.257 	44.6024 	-0.522068 	0
0.0439945 	-146.842 	44.5921 	-0.523387 	0
0.0445658 	-146.441 	44.5821 	-0.524857 	0
0.0451372 	-146.041 	44.5722 	-0.526328 	0
0.0457085 	-145.641 	44.5622 	-0.527798 	0
0.0462799 	-145.242 	44.5524 	-0.528921 	0
0.0468513 	-144.847 	44.5429 	-0.528981 	0
0.0474226 	-144.452 	44.5334 	-0.52904 	0
0.047994 	-144.057 	44.524 	-0.529099 	0
0.0485653 	-143.667 	44.5146 	-0.529216 	0
0.0491367 	-143.29 	44.5056 	-0.529516 	0
0.049708 	-142.913 	44.4965 	-0.529817 	0
0.0502794 	-142.537 	44.4875 	-0.530118 	0
0.0508508 	-142.16 	44.4785 	-0.530418 	0
0.0514221 	-141.792 	44.4699 	-0.529866 	0
0.0519935 	-141.43 	44.4615 	-0.528788 	0
0.0525648 	-141.069 	44.4532 	-0.52771 	0
0.0531362 	-140.707 	44.4448 	-0.526631 	0
0.0537075 	-140.345 	44.4365 	-0.525559 	0
0.0542789 	-139.998 	44.4285 	-0.524744 	0
0.0548503 	-139.651 	44.4205 	-0.523929 	0
0.0554216 	-139.305 	44.4125 	-0.523114 	0
0.055993 	-138.958 	44.4046 	-0.5223 	0
0.0565643 	-138.611 	44.3966 	-0.521485 	0
0.0571357 	-138.287 	44.3894 	-0.519755 	0
0.057707 	-137.973 	44.3825 	-0.517682 	0
0.0582784 	-137.658 	44.3756 	-0.515608 	0
0.0588497 	-137.344 	44.3687 	-0.513535 	0
0.0594211 	-137.029 	44.3618 	-0.511461 	0
0.0599925 	-136.72 	44.355 	-0.509511 	0
0.0605638 	-136.417 	44.3484 	-0.507707 	0
0.0611352 	-136.114 	44.3418 	-0.505903 	0
0.0617065 	-135.812 	44.3351 	-0.504099 	0
0.0622779 	-135.509 	44.3285 	-0.502294 	0
0.0628492 	-135.206 	44.3219 	-0.50049 	0
0.0634206 	-134.914 	44.3157 	-0.498259 	0
0.063992 	-134.64 	44.3101 	-0.495351 	0
0.0645633 	-134.366 	44.3045 	-0.492442 	0
0.0651347 	-134.092 	44.2989 	-0.489533 	0
0.065706 	-133.818 	44.2933 	-0.486624 	0
0.0662774 	-133.545 	44.2877 	-0.483747 	0
0.0668487 	-133.281 	44.2823 	-0.48111 	0
0.0674201 	-133.016 	44.2769 	-0.478473 	0
0.0679915 	-132.751 	44.2715 	-0.475836 	0
0.0685628 	-132.486 	44.2662 	-0.473199 	0
0.0691342 	-132.221 	44.2608 	-0.470562 	0
0.0697055 	-131.958 	44.2554 	-0.467879 	0
0.0702769 	-131.715 	44.251 	-0.464264 	0
0.0708482 	-131.473 	44.2465 	-0.46065 	0
0.0714196 	-131.231 	44.242 	-0.457035 	0
0.071991 	-130.989 	44.2376 	-0.45342 	0
0.0725623 	-130.75 	44.2332 	-0.449929 	0
0.0731337 	-130.516 	44.2289 	-0.44659 	0
0.073705 	-130.281 	44.2246 	-0.44325 	0
0.0742764 	-130.046 	44.2203 	-0.439911 	0
0.0748477 	-129.811 	44.216 	-0.436571 	0
0.0754191 	-129.581 	44.2119 	-0.433121 	0
0.0759905 	-129.372 	44.2086 	-0.429071 	0
0.0765618 	-129.163 	44.2054 	-0.425021 	0
0.0771332 	-128.954 	44.2021 	-0.420971 	0
0.0777045 	-128.747 	44.1988 	-0.41696 	0
0.0782759 	-128.544 	44.1957 	-0.413179 	0
0.0788472 	-128.341 	44.1926 	-0.409398 	0
0.0794186 	-128.138 	44.1894 	-0.405617 	0
0.0799899 	-127.935 	44.1863 	-0.401836 	0
0.0805613 	-127.744 	44.1837 	-0.397752 	0
0.0811327 	-127.564 	44.1816 	-0.393396 	0
0.081704 	-127.384 	44.1794 	-0.389041 	0
0.0822754 	-127.203 	44.1773 	-0.384694 	0
0.0828467 	-127.028 	44.1753 	-0.380601 	0
0.0834181 	-126.852 	44.1732 	-0.376509 	0
0.0839894 	-126.677 	44.1712 	-0.372416 	0
0.0845608 	-126.501 	44.1692 	-0.368322 	0
0.0851322 	-126.345 	44.1682 	-0.363752 	0
0.0857035 	-126.189 	44.1672 	-0.359182 	0
0.0862749 	-126.033 	44.1662 	-0.354612 	0
0.0868462 	-125.88 	44.1653 	-0.350286 	0
0.0874176 	-125.728 	44.1644 	-0.345973 	0
0.0879889 	-125.576 	44.1635 	-0.341659 	0
0.0885603 	-125.431 	44.1631 	-0.337165 	0
0.0891317 	-125.295 	44.1633 	-0.332441 	0
0.089703 	-125.159 	44.1635 	-0.327717 	0
0.0902744 	-125.026 	44.1637 	-0.323188 	0
0.0908457 	-124.894 	44.164 	-0.318716 	0
0.0914171 	-124.762 	44.1643 	-0.314243 	0
0.0919884 	-124.64 	44.1655 	-0.309512 	0
0.0925598 	-124.522 	44.167 	-0.304677 	0
0.0931312 	-124.405 	44.1685 	-0.29994 	0
0.0937025 	-124.29 	44.1701 	-0.295352 	0
0.0942739 	-124.174 	44.1717 	-0.290765 	0
0.0948452 	-124.068 	44.1743 	-0.285942 	0
0.0954166 	-123.965 	44.1774 	-0.281027 	0
0.0959879 	-123.864 	44.1804 	-0.276283 	0
0.0965593 	-123.764 	44.1835 	-0.271612 	0
0.0971307 	-123.667 	44.1872 	-0.266832 	0
0.097702 	-123.577 	44.1919 	-0.261861 	0
0.0982734 	-123.489 	44.1967 	-0.257034 	0
0.0988447 	-123.401 	44.2015 	-0.252304 	0
0.0994161 	-123.319 	44.2074 	-0.247416 	0
0.0999874 	-123.24 	44.2141 	-0.242411 	0
0.100559 	-123.164 	44.2209 	-0.237639 	0
0.10113 	-123.089 	44.2283 	-0.232801 	0
0.101702 	-123.02 	44.2373 	-0.227763 	0
0.102273 	-122.953 	44.2464 	-0.222941 	0
0.102844 	-122.888 	44.2564 	-0.218049 	0
0.103416 	-122.828 	44.268 	-0.213039 	0
0.103987 	-122.769 	44.2797 	-0.20822 	0
0.104558 	-122.715 	44.2937 	-0.203195 	0
0.10513 	-122.663 	44.3082 	-0.198322 	0
0.105701 	-122.615 	44.3246 	-0.193339 	0
0.106272 	-122.569 	44.3422 	-0.188445 	0
0.106844 	-122.527 	44.362 	-0.18344 	0
0.107415 	-122.487 	44.3829 	-0.178578 	0
0.107986 	-122.451 	44.407 	-0.173596 	0
0.108558 	-122.418 	44.433 	-0.168632 	0
0.109129 	-122.387 	44.4613 	-0.163722 	0
0.109701 	-122.36 	44.4927 	-0.158792 	0
0.110272 	-122.336 	44.5254 	-0.153933 	0
0.110843 	-122.313 	44.4761 	-0.148344 	0
0.111415 	-122.292 	43.7111 	-0.132751 	0
0.111986 	-122.286 	40.9041 	-0.0896567 	0
0.112557 	-122.293 	37.024 	-0.049404 	0
0.113129 	-122.314 	31.899 	-0.0195938 	0
0.1137 	-122.336 	1.42799e-10 	-5.09187e-15 	0
