0 	-203.206 	0 	0 	0
0.000571357 	-203.15 	-1.37674 	0.252772 	0
0.00114271 	-203.118 	-2.2478 	0.585998 	0
0.00171407 	-203.193 	-2.47729 	0.813756 	0
0.00228543 	-203.327 	-2.47943 	0.973878 	0
0.00285678 	-203.481 	-2.3861 	1.09595 	0
0.00342814 	-203.635 	-2.23597 	1.19053 	0
0.0039995 	-203.778 	-2.05166 	1.26426 	0
0.00457085 	-203.903 	-1.84186 	1.31996 	0
0.00514221 	-204.005 	-1.6159 	1.35907 	0
0.00571357 	-204.083 	-1.37616 	1.3829 	0
0.00628492 	-204.135 	-1.12809 	1.39199 	0
0.00685628 	-204.163 	-0.874656 	1.38645 	0
0.00742764 	-204.167 	-0.616638 	1.366 	0
0.00799899 	-204.141 	-0.350312 	1.32769 	0
0.00857035 	-204.079 	-0.0688414 	1.27012 	0
0.00914171 	-203.952 	0.281004 	1.18051 	0
0.00971307 	-203.75 	0.775198 	1.04871 	0
0.0102844 	-203.467 	1.70433 	0.836667 	0
0.0108558 	-203.111 	3.49957 	0.522271 	0
0.0114271 	-202.675 	6.31617 	0.149256 	0
0.0119985 	-202.157 	10.1656 	-0.219627 	0
0.0125698 	-201.629 	14.0894 	-0.47746 	0
0.0131412 	-200.601 	20.9846 	-0.64546 	0
0.0137126 	-199.879 	26.4743 	-0.607917 	0
0.0142839 	-199.485 	29.5283 	-0.631859 	0
0.0148553 	-199.046 	32.0146 	-0.671664 	0
0.0154266 	-198.54 	34.2701 	-0.702655 	0
0.015998 	-197.974 	35.7171 	-0.727753 	0
0.0165693 	-197.377 	36.5706 	-0.748198 	0
0.0171407 	-196.754 	37.2273 	-0.765505 	0
0.0177121 	-196.108 	37.8093 	-0.780952 	0
0.0182834 	-195.444 	38.3381 	-0.795011 	0
0.0188548 	-194.754 	38.8128 	-0.807641 	0
0.0194261 	-194.054 	39.2465 	-0.818987 	0
0.0199975 	-193.346 	39.6618 	-0.829814 	0
0.0205688 	-192.613 	40.0294 	-0.839198 	0
0.0211402 	-191.884 	40.3915 	-0.84835 	0
0.0217116 	-191.134 	40.7154 	-0.856313 	0
0.0222829 	-190.39 	41.0397 	-0.864267 	0
0.0228543 	-189.629 	41.3278 	-0.870909 	0
0.0234256 	-188.867 	41.6135 	-0.87746 	0
0.023997 	-188.108 	41.8856 	-0.883524 	0
0.0245683 	-187.339 	42.1377 	-0.88884 	0
0.0251397 	-186.571 	42.3898 	-0.89416 	0
0.0257111 	-185.807 	42.6269 	-0.898859 	0
0.0262824 	-185.037 	42.8498 	-0.902885 	0
0.0268538 	-184.266 	43.0726 	-0.906911 	0
0.0274251 	-183.505 	43.2897 	-0.910814 	0
0.0279965 	-182.74 	43.4835 	-0.913756 	0
0.0285678 	-181.976 	43.6772 	-0.916698 	0
0.0291392 	-181.213 	43.8711 	-0.919658 	0
0.0297106 	-180.461 	44.0421 	-0.921914 	0
0.0302819 	-179.709 	44.1796 	-0.922869 	0
0.0308533 	-178.957 	44.3171 	-0.923825 	0
0.0314246 	-178.204 	44.4546 	-0.92478 	0
0.031996 	-177.463 	44.5871 	-0.925789 	0
0.0325673 	-176.742 	44.6211 	-0.923849 	0
0.0331387 	-176.021 	44.6552 	-0.921909 	0
0.0337101 	-175.301 	44.6892 	-0.919968 	0
0.0342814 	-174.58 	44.7232 	-0.918028 	0
0.0348528 	-173.871 	44.7546 	-0.916284 	0
0.0354241 	-173.205 	44.7349 	-0.912725 	0
0.0359955 	-172.539 	44.7152 	-0.909166 	0
0.0365668 	-171.872 	44.6955 	-0.905607 	0
0.0371382 	-171.206 	44.6758 	-0.902049 	0
0.0377095 	-170.542 	44.6562 	-0.898609 	0
0.0382809 	-169.901 	44.6384 	-0.895097 	0
0.0388523 	-169.292 	44.6239 	-0.891002 	0
0.0394236 	-168.684 	44.6094 	-0.886906 	0
0.039995 	-168.075 	44.5949 	-0.88281 	0
0.0405663 	-167.467 	44.5803 	-0.878715 	0
0.0411377 	-166.858 	44.5658 	-0.874619 	0
0.041709 	-166.256 	44.5514 	-0.87082 	0
0.0422804 	-165.697 	44.5383 	-0.866394 	0
0.0428518 	-165.15 	44.5255 	-0.861776 	0
0.0434231 	-164.602 	44.5127 	-0.857158 	0
0.0439945 	-164.055 	44.4999 	-0.85254 	0
0.0445658 	-163.508 	44.4871 	-0.847922 	0
0.0451372 	-162.961 	44.4743 	-0.843304 	0
0.0457085 	-162.417 	44.4616 	-0.838855 	0
0.0462799 	-161.89 	44.4493 	-0.834337 	0
0.0468513 	-161.407 	44.4383 	-0.829233 	0
0.0474226 	-160.923 	44.4273 	-0.824129 	0
0.047994 	-160.44 	44.4163 	-0.819024 	0
0.0485653 	-159.957 	44.4053 	-0.81392 	0
0.0491367 	-159.473 	44.3943 	-0.808816 	0
0.049708 	-158.99 	44.3832 	-0.803711 	0
0.0502794 	-158.508 	44.3722 	-0.798646 	0
0.0508508 	-158.028 	44.3613 	-0.793804 	0
0.0514221 	-157.587 	44.3514 	-0.788559 	0
0.0519935 	-157.168 	44.3422 	-0.783064 	0
0.0525648 	-156.75 	44.333 	-0.777569 	0
0.0531362 	-156.332 	44.3237 	-0.772074 	0
0.0537075 	-155.913 	44.3145 	-0.766579 	0
0.0542789 	-155.495 	44.3053 	-0.761084 	0
0.0548503 	-155.077 	44.296 	-0.755589 	0
0.0554216 	-154.658 	44.2868 	-0.750094 	0
0.055993 	-154.241 	44.2776 	-0.74471 	0
0.0565643 	-153.826 	44.2684 	-0.739448 	0
0.0571357 	-153.462 	44.2606 	-0.733889 	0
0.057707 	-153.116 	44.2533 	-0.728218 	0
0.0582784 	-152.771 	44.246 	-0.722546 	0
0.0588497 	-152.426 	44.2387 	-0.716875 	0
0.0594211 	-152.081 	44.2314 	-0.711204 	0
0.0599925 	-151.736 	44.2241 	-0.705533 	0
0.0605638 	-151.39 	44.2169 	-0.699862 	0
0.0611352 	-151.045 	44.2096 	-0.694191 	0
0.0617065 	-150.7 	44.2023 	-0.68852 	0
0.0622779 	-150.356 	44.195 	-0.682927 	0
0.0628492 	-150.013 	44.1878 	-0.677455 	0
0.0634206 	-149.691 	44.1811 	-0.671825 	0
0.063992 	-149.402 	44.1754 	-0.665944 	0
0.0645633 	-149.114 	44.1698 	-0.660063 	0
0.0651347 	-148.826 	44.1641 	-0.654182 	0
0.065706 	-148.538 	44.1584 	-0.6483 	0
0.0662774 	-148.25 	44.1527 	-0.642419 	0
0.0668487 	-147.962 	44.147 	-0.636538 	0
0.0674201 	-147.674 	44.1413 	-0.630657 	0
0.0679915 	-147.385 	44.1357 	-0.624776 	0
0.0685628 	-147.097 	44.13 	-0.618905 	0
0.0691342 	-146.811 	44.1243 	-0.613198 	0
0.0697055 	-146.526 	44.1187 	-0.607469 	0
0.0702769 	-146.279 	44.1144 	-0.601299 	0
0.0708482 	-146.032 	44.11 	-0.595129 	0
0.0714196 	-145.786 	44.1056 	-0.588959 	0
0.071991 	-145.539 	44.1012 	-0.582788 	0
0.0725623 	-145.292 	44.0969 	-0.576618 	0
0.0731337 	-145.046 	44.0925 	-0.570448 	0
0.073705 	-144.799 	44.0881 	-0.564278 	0
0.0742764 	-144.553 	44.0838 	-0.558107 	0
0.0748477 	-144.307 	44.0794 	-0.552082 	0
0.0754191 	-144.067 	44.0752 	-0.546034 	0
0.0759905 	-143.859 	44.0721 	-0.539787 	0
0.0765618 	-143.651 	44.069 	-0.533539 	0
0.0771332 	-143.443 	44.0659 	-0.527292 	0
0.0777045 	-143.235 	44.0628 	-0.521044 	0
0.0782759 	-143.027 	44.0597 	-0.514797 	0
0.0788472 	-142.819 	44.0566 	-0.50855 	0
0.0794186 	-142.611 	44.0535 	-0.502311 	0
0.0799899 	-142.403 	44.0504 	-0.496208 	0
0.0805613 	-142.212 	44.048 	-0.490003 	0
0.0811327 	-142.035 	44.046 	-0.483705 	0
0.081704 	-141.858 	44.0441 	-0.477407 	0
0.0822754 	-141.681 	44.0422 	-0.471109 	0
0.0828467 	-141.504 	44.0402 	-0.464811 	0
0.0834181 	-141.327 	44.0383 	-0.458514 	0
0.0839894 	-141.15 	44.0364 	-0.452261 	0
0.0845608 	-140.974 	44.0344 	-0.446098 	0
0.0851322 	-140.822 	44.0337 	-0.439773 	0
0.0857035 	-140.671 	44.0329 	-0.433448 	0
0.0862749 	-140.519 	44.0321 	-0.427124 	0
0.0868462 	-140.367 	44.0313 	-0.420799 	0
0.0874176 	-140.216 	44.0305 	-0.414474 	0
0.0879889 	-140.064 	44.0298 	-0.408226 	0
0.0885603 	-139.922 	44.0295 	-0.401965 	0
0.0891317 	-139.791 	44.0299 	-0.395622 	0
0.089703 	-139.661 	44.0303 	-0.389279 	0
0.0902744 	-139.53 	44.0308 	-0.382937 	0
0.0908457 	-139.399 	44.0312 	-0.376594 	0
0.0914171 	-139.269 	44.0316 	-0.37034 	0
0.0919884 	-139.151 	44.033 	-0.364026 	0
0.0925598 	-139.038 	44.0347 	-0.357676 	0
0.0931312 	-138.925 	44.0364 	-0.351325 	0
0.0937025 	-138.811 	44.0382 	-0.344975 	0
0.0942739 	-138.698 	44.0399 	-0.338695 	0
0.0948452 	-138.596 	44.0427 	-0.332375 	0
0.0954166 	-138.498 	44.046 	-0.32602 	0
0.0959879 	-138.4 	44.0492 	-0.319666 	0
0.0965593 	-138.301 	44.0524 	-0.313327 	0
0.0971307 	-138.208 	44.0563 	-0.307046 	0
0.097702 	-138.122 	44.0612 	-0.300693 	0
0.0982734 	-138.037 	44.0662 	-0.29434 	0
0.0988447 	-137.951 	44.0712 	-0.288014 	0
0.0994161 	-137.872 	44.0773 	-0.281712 	0
0.0999874 	-137.797 	44.0842 	-0.275363 	0
0.100559 	-137.722 	44.0912 	-0.269015 	0
0.10113 	-137.65 	44.0988 	-0.262733 	0
0.101702 	-137.584 	44.108 	-0.256391 	0
0.102273 	-137.519 	44.1173 	-0.250049 	0
0.102844 	-137.456 	44.1275 	-0.243768 	0
0.103416 	-137.399 	44.1394 	-0.237437 	0
0.103987 	-137.341 	44.1513 	-0.231137 	0
0.104558 	-137.289 	44.1656 	-0.224828 	0
0.10513 	-137.239 	44.1804 	-0.218506 	0
0.105701 	-137.192 	44.1971 	-0.212237 	0
0.106272 	-137.147 	44.2149 	-0.205946 	0
0.106844 	-137.106 	44.2351 	-0.199662 	0
0.107415 	-137.067 	44.2563 	-0.193377 	0
0.107986 	-137.032 	44.2808 	-0.187133 	0
0.108558 	-136.999 	44.3071 	-0.180865 	0
0.109129 	-136.968 	44.3361 	-0.1746 	0
0.109701 	-136.941 	44.3668 	-0.168425 	0
0.110272 	-136.916 	44.3568 	-0.161928 	0
0.110843 	-136.891 	43.9176 	-0.149779 	0
0.111415 	-136.875 	42.2404 	-0.118578 	0
0.111986 	-136.869 	39.2898 	-0.0783266 	0
0.112557 	-136.878 	35.7875 	-0.044585 	0
0.113129 	-136.897 	31.0264 	-0.0184436 	0
0.1137 	-136.918 	1.40529e-10 	-4.96831e-15 	0
