0.0131412 	-164.825 	20.0708 	-0.00501748 	0
0.0137126 	-164.809 	24.9596 	-0.00370421 	0
0.0142839 	-164.782 	28.9358 	0.0146211 	0
0.0148553 	-164.752 	31.9511 	0.0356395 	0
0.0154266 	-164.734 	33.5212 	0.0382472 	0
0.015998 	-164.713 	34.5024 	0.0349622 	0
0.0165693 	-164.689 	35.3246 	0.0314441 	0
0.0171407 	-164.662 	36.0378 	0.0278326 	0
0.0177121 	-164.633 	36.6707 	0.0241645 	0
0.0182834 	-164.601 	37.2452 	0.0204698 	0
0.0188548 	-164.565 	37.7613 	0.0166833 	0
0.0194261 	-164.527 	38.2326 	0.0129559 	0
0.0199975 	-164.488 	38.684 	0.00925886 	0
0.0205688 	-164.442 	39.0846 	0.00547167 	0
0.0211402 	-164.398 	39.4789 	0.00181086 	0
0.0217116 	-164.347 	39.8327 	-0.00193391 	0
0.0222829 	-164.298 	40.1866 	-0.00556337 	0
0.0228543 	-164.242 	40.5022 	-0.00922849 	0
0.0234256 	-164.185 	40.8152 	-0.0129047 	0
0.023997 	-164.129 	41.1133 	-0.0164046 	0
0.0245683 	-164.065 	41.3904 	-0.0199958 	0
0.0251397 	-164.002 	41.6675 	-0.0235413 	0
0.0257111 	-163.937 	41.9282 	-0.0269595 	0
0.0262824 	-163.866 	42.1737 	-0.030427 	0
0.0268538 	-163.795 	42.4192 	-0.0338945 	0
0.0274251 	-163.727 	42.6591 	-0.0371726 	0
0.0279965 	-163.648 	42.8768 	-0.0405125 	0
0.0285678 	-163.569 	43.0945 	-0.0438524 	0
0.0291392 	-163.493 	43.3122 	-0.0471345 	0
0.0297106 	-163.414 	43.5101 	-0.0502575 	0
0.0302819 	-163.327 	43.6793 	-0.0533451 	0
0.0308533 	-163.239 	43.8485 	-0.0564328 	0
0.0314246 	-163.152 	44.0177 	-0.0595081 	0
0.031996 	-163.071 	44.1814 	-0.0624233 	0
0.0325673 	-162.976 	44.2442 	-0.0651696 	0
0.0331387 	-162.881 	44.3071 	-0.067916 	0
0.0337101 	-162.786 	44.37 	-0.0706623 	0
0.0342814 	-162.693 	44.4329 	-0.0733811 	0
0.0348528 	-162.606 	44.4921 	-0.0759974 	0
0.0354241 	-162.506 	44.4888 	-0.0784494 	0
0.0359955 	-162.406 	44.4855 	-0.0809014 	0
0.0365668 	-162.306 	44.4823 	-0.0833533 	0
0.0371382 	-162.206 	44.479 	-0.0858053 	0
0.0377095 	-162.112 	44.4759 	-0.0882008 	0
0.0382809 	-162.017 	44.4727 	-0.0905058 	0
0.0388523 	-161.913 	44.4692 	-0.0926851 	0
0.0394236 	-161.809 	44.4656 	-0.0948643 	0
0.039995 	-161.706 	44.4621 	-0.0970436 	0
0.0405663 	-161.602 	44.4586 	-0.0992229 	0
0.0411377 	-161.501 	44.4551 	-0.101384 	0
0.041709 	-161.406 	44.4518 	-0.103506 	0
0.0422804 	-161.302 	44.4486 	-0.105446 	0
0.0428518 	-161.196 	44.4455 	-0.107332 	0
0.0434231 	-161.089 	44.4424 	-0.109219 	0
0.0439945 	-160.983 	44.4393 	-0.111105 	0
0.0445658 	-160.876 	44.4362 	-0.112991 	0
0.0451372 	-160.77 	44.4331 	-0.114876 	0
0.0457085 	-160.672 	44.4302 	-0.116732 	0
0.0462799 	-160.572 	44.4273 	-0.118512 	0
0.0468513 	-160.464 	44.4246 	-0.120058 	0
0.0474226 	-160.357 	44.4219 	-0.121604 	0
0.047994 	-160.249 	44.4191 	-0.123151 	0
0.0485653 	-160.142 	44.4164 	-0.124697 	0
0.0491367 	-160.035 	44.4136 	-0.126243 	0
0.049708 	-159.927 	44.4109 	-0.127789 	0
0.0502794 	-159.825 	44.4083 	-0.129335 	0
0.0508508 	-159.727 	44.4057 	-0.13088 	0
0.0514221 	-159.623 	44.4033 	-0.132197 	0
0.0519935 	-159.517 	44.401 	-0.133373 	0
0.0525648 	-159.411 	44.3986 	-0.134548 	0
0.0531362 	-159.306 	44.3963 	-0.135724 	0
0.0537075 	-159.2 	44.3939 	-0.136899 	0
0.0542789 	-159.094 	44.3915 	-0.138075 	0
0.0548503 	-158.988 	44.3892 	-0.13925 	0
0.0554216 	-158.882 	44.3868 	-0.140427 	0
0.055993 	-158.784 	44.3847 	-0.141631 	0
0.0565643 	-158.687 	44.3825 	-0.142836 	0
0.0571357 	-158.588 	44.3806 	-0.143722 	0
0.057707 	-158.489 	44.3787 	-0.14449 	0
0.0582784 	-158.39 	44.3769 	-0.145257 	0
0.0588497 	-158.292 	44.375 	-0.146024 	0
0.0594211 	-158.193 	44.3731 	-0.146792 	0
0.0599925 	-158.094 	44.3713 	-0.147559 	0
0.0605638 	-157.995 	44.3694 	-0.148327 	0
0.0611352 	-157.896 	44.3676 	-0.149094 	0
0.0617065 	-157.798 	44.3657 	-0.149864 	0
0.0622779 	-157.706 	44.364 	-0.150686 	0
0.0628492 	-157.615 	44.3623 	-0.151509 	0
0.0634206 	-157.523 	44.3608 	-0.152173 	0
0.063992 	-157.432 	44.3594 	-0.152584 	0
0.0645633 	-157.34 	44.3581 	-0.152995 	0
0.0651347 	-157.249 	44.3567 	-0.153405 	0
0.065706 	-157.157 	44.3554 	-0.153816 	0
0.0662774 	-157.066 	44.354 	-0.154227 	0
0.0668487 	-156.974 	44.3527 	-0.154638 	0
0.0674201 	-156.883 	44.3513 	-0.155049 	0
0.0679915 	-156.791 	44.35 	-0.15546 	0
0.0685628 	-156.704 	44.3487 	-0.155926 	0
0.0691342 	-156.619 	44.3475 	-0.156416 	0
0.0697055 	-156.534 	44.3464 	-0.156888 	0
0.0702769 	-156.449 	44.3455 	-0.157005 	0
0.0708482 	-156.364 	44.3447 	-0.157122 	0
0.0714196 	-156.279 	44.3439 	-0.15724 	0
0.071991 	-156.194 	44.3431 	-0.157357 	0
0.0725623 	-156.11 	44.3423 	-0.157474 	0
0.0731337 	-156.025 	44.3415 	-0.157591 	0
0.073705 	-155.94 	44.3407 	-0.157708 	0
0.0742764 	-155.858 	44.3399 	-0.157872 	0
0.0748477 	-155.779 	44.3393 	-0.158088 	0
0.0754191 	-155.7 	44.3387 	-0.158253 	0
0.0759905 	-155.625 	44.3385 	-0.158135 	0
0.0765618 	-155.549 	44.3383 	-0.158017 	0
0.0771332 	-155.474 	44.3381 	-0.157899 	0
0.0777045 	-155.398 	44.3379 	-0.157781 	0
0.0782759 	-155.323 	44.3377 	-0.157663 	0
0.0788472 	-155.247 	44.3375 	-0.157545 	0
0.0794186 	-155.174 	44.3373 	-0.157488 	0
0.0799899 	-155.104 	44.3372 	-0.157482 	0
0.0805613 	-155.035 	44.3375 	-0.157323 	0
0.0811327 	-154.968 	44.3379 	-0.157027 	0
0.081704 	-154.902 	44.3384 	-0.156732 	0
0.0822754 	-154.835 	44.3389 	-0.156437 	0
0.0828467 	-154.768 	44.3393 	-0.156141 	0
0.0834181 	-154.702 	44.3398 	-0.155846 	0
0.0839894 	-154.638 	44.3404 	-0.155643 	0
0.0845608 	-154.576 	44.3409 	-0.155468 	0
0.0851322 	-154.518 	44.3422 	-0.155038 	0
0.0857035 	-154.459 	44.3434 	-0.154607 	0
0.0862749 	-154.401 	44.3446 	-0.154176 	0
0.0868462 	-154.342 	44.3458 	-0.153746 	0
0.0874176 	-154.284 	44.3471 	-0.153315 	0
0.0879889 	-154.229 	44.3484 	-0.153009 	0
0.0885603 	-154.176 	44.35 	-0.152605 	0
0.0891317 	-154.125 	44.3521 	-0.152073 	0
0.089703 	-154.074 	44.3542 	-0.15154 	0
0.0902744 	-154.023 	44.3563 	-0.151007 	0
0.0908457 	-153.972 	44.3584 	-0.150482 	0
0.0914171 	-153.924 	44.3606 	-0.150081 	0
0.0919884 	-153.879 	44.3635 	-0.149531 	0
0.0925598 	-153.834 	44.3666 	-0.148921 	0
0.0931312 	-153.79 	44.3698 	-0.148311 	0
0.0937025 	-153.746 	44.3729 	-0.147701 	0
0.0942739 	-153.704 	44.3761 	-0.147212 	0
0.0948452 	-153.665 	44.3802 	-0.146598 	0
0.0954166 	-153.627 	44.3846 	-0.14593 	0
0.0959879 	-153.588 	44.389 	-0.145262 	0
0.0965593 	-153.551 	44.3934 	-0.144646 	0
0.0971307 	-153.516 	44.3984 	-0.14405 	0
0.097702 	-153.483 	44.4043 	-0.143339 	0
0.0982734 	-153.45 	44.4102 	-0.142628 	0
0.0988447 	-153.418 	44.4162 	-0.14198 	0
0.0994161 	-153.388 	44.4231 	-0.141311 	0
0.0999874 	-153.36 	44.4308 	-0.140568 	0
0.100559 	-153.332 	44.4385 	-0.139829 	0
0.10113 	-153.306 	44.4468 	-0.139186 	0
0.101702 	-153.281 	44.4567 	-0.138421 	0
0.102273 	-153.257 	44.4665 	-0.137661 	0
0.102844 	-153.235 	44.4772 	-0.136981 	0
0.103416 	-153.214 	44.4895 	-0.1362 	0
0.103987 	-153.194 	44.5017 	-0.135481 	0
0.104558 	-153.177 	44.5162 	-0.134715 	0
0.10513 	-153.159 	44.5312 	-0.133947 	0
0.105701 	-153.144 	44.548 	-0.133205 	0
0.106272 	-153.129 	44.5658 	-0.132435 	0
0.106844 	-153.117 	44.5859 	-0.131678 	0
0.107415 	-153.105 	44.607 	-0.130938 	0
0.107986 	-153.095 	44.6311 	-0.130141 	0
0.108558 	-153.086 	44.6571 	-0.129395 	0
0.109129 	-153.078 	44.6854 	-0.128646 	0
0.109701 	-153.072 	44.7164 	-0.127895 	0
0.110272 	-153.067 	44.7506 	-0.127139 	0
0.110843 	-153.063 	44.7883 	-0.126402 	0
0.111415 	-153.061 	44.8121 	-0.125772 	0
0.111986 	-153.058 	43.8784 	-0.112169 	0
0.112557 	-153.074 	39.8035 	-0.0618429 	0
0.113129 	-153.104 	33.7304 	-0.0212598 	0
0.1137 	-153.13 	1.57365e-10 	-5.23898e-15 	0
