0.0131412 	-174.464 	20.4803 	-0.0102488 	0
0.0137126 	-174.452 	24.8818 	-0.0213443 	0
0.0142839 	-174.415 	28.272 	-0.0213734 	0
0.0148553 	-174.364 	31.3522 	-0.0116029 	0
0.0154266 	-174.307 	33.5656 	-0.00526581 	0
0.015998 	-174.249 	34.7379 	-0.0117707 	0
0.0165693 	-174.182 	35.5774 	-0.0206567 	0
0.0171407 	-174.106 	36.2916 	-0.029454 	0
0.0177121 	-174.022 	36.9238 	-0.0381699 	0
0.0182834 	-173.93 	37.4969 	-0.0467844 	0
0.0188548 	-173.831 	38.0111 	-0.0551406 	0
0.0194261 	-173.72 	38.48 	-0.0634532 	0
0.0199975 	-173.607 	38.929 	-0.0716124 	0
0.0205688 	-173.481 	39.3267 	-0.0795834 	0
0.0211402 	-173.352 	39.7182 	-0.0874988 	0
0.0217116 	-173.211 	40.069 	-0.0951361 	0
0.0222829 	-173.072 	40.4198 	-0.102722 	0
0.0228543 	-172.914 	40.7321 	-0.110101 	0
0.0234256 	-172.76 	41.0418 	-0.11733 	0
0.023997 	-172.593 	41.3365 	-0.124523 	0
0.0245683 	-172.423 	41.6103 	-0.131359 	0
0.0251397 	-172.252 	41.884 	-0.138195 	0
0.0257111 	-172.067 	42.141 	-0.1449 	0
0.0262824 	-171.879 	42.3831 	-0.151254 	0
0.0268538 	-171.692 	42.6253 	-0.157607 	0
0.0274251 	-171.498 	42.8614 	-0.16392 	0
0.0279965 	-171.291 	43.0751 	-0.169845 	0
0.0285678 	-171.087 	43.2889 	-0.175717 	0
0.0291392 	-170.884 	43.5028 	-0.181589 	0
0.0297106 	-170.666 	43.6958 	-0.187224 	0
0.0302819 	-170.445 	43.8596 	-0.192326 	0
0.0308533 	-170.225 	44.0235 	-0.19742 	0
0.0314246 	-170.006 	44.1873 	-0.202513 	0
0.031996 	-169.784 	44.3453 	-0.207554 	0
0.0325673 	-169.544 	44.4026 	-0.211638 	0
0.0331387 	-169.313 	44.4603 	-0.215677 	0
0.0337101 	-169.082 	44.5179 	-0.219717 	0
0.0342814 	-168.851 	44.5756 	-0.223756 	0
0.0348528 	-168.619 	44.6293 	-0.227744 	0
0.0354241 	-168.374 	44.6222 	-0.230927 	0
0.0359955 	-168.14 	44.6154 	-0.2341 	0
0.0365668 	-167.906 	44.6085 	-0.237274 	0
0.0371382 	-167.671 	44.6017 	-0.240448 	0
0.0377095 	-167.437 	44.5948 	-0.243621 	0
0.0382809 	-167.197 	44.588 	-0.246558 	0
0.0388523 	-166.957 	44.5814 	-0.249048 	0
0.0394236 	-166.723 	44.575 	-0.25155 	0
0.039995 	-166.489 	44.5686 	-0.254052 	0
0.0405663 	-166.255 	44.5621 	-0.256554 	0
0.0411377 	-166.021 	44.5557 	-0.259055 	0
0.041709 	-165.788 	44.5493 	-0.261557 	0
0.0422804 	-165.545 	44.543 	-0.263484 	0
0.0428518 	-165.314 	44.5371 	-0.265315 	0
0.0434231 	-165.084 	44.5313 	-0.267147 	0
0.0439945 	-164.855 	44.5254 	-0.268978 	0
0.0445658 	-164.625 	44.5195 	-0.27081 	0
0.0451372 	-164.395 	44.5137 	-0.272642 	0
0.0457085 	-164.165 	44.5078 	-0.274474 	0
0.0462799 	-163.933 	44.502 	-0.276105 	0
0.0468513 	-163.703 	44.4965 	-0.277162 	0
0.0474226 	-163.481 	44.4912 	-0.278291 	0
0.047994 	-163.26 	44.4859 	-0.279419 	0
0.0485653 	-163.038 	44.4806 	-0.280548 	0
0.0491367 	-162.817 	44.4753 	-0.281677 	0
0.049708 	-162.595 	44.4701 	-0.282805 	0
0.0502794 	-162.374 	44.4648 	-0.283934 	0
0.0508508 	-162.152 	44.4595 	-0.285063 	0
0.0514221 	-161.931 	44.4544 	-0.285679 	0
0.0519935 	-161.718 	44.4497 	-0.286058 	0
0.0525648 	-161.509 	44.445 	-0.286495 	0
0.0531362 	-161.301 	44.4404 	-0.286931 	0
0.0537075 	-161.092 	44.4357 	-0.287368 	0
0.0542789 	-160.884 	44.4311 	-0.287804 	0
0.0548503 	-160.675 	44.4264 	-0.28824 	0
0.0554216 	-160.467 	44.4218 	-0.288677 	0
0.055993 	-160.258 	44.4171 	-0.289113 	0
0.0565643 	-160.05 	44.4125 	-0.28955 	0
0.0571357 	-159.851 	44.4083 	-0.289397 	0
0.057707 	-159.66 	44.4044 	-0.289104 	0
0.0582784 	-159.474 	44.4006 	-0.288882 	0
0.0588497 	-159.288 	44.3968 	-0.28866 	0
0.0594211 	-159.102 	44.393 	-0.288438 	0
0.0599925 	-158.916 	44.3892 	-0.288216 	0
0.0605638 	-158.73 	44.3854 	-0.287994 	0
0.0611352 	-158.544 	44.3816 	-0.287772 	0
0.0617065 	-158.358 	44.3778 	-0.28755 	0
0.0622779 	-158.172 	44.374 	-0.287327 	0
0.0628492 	-157.986 	44.3702 	-0.287105 	0
0.0634206 	-157.805 	44.3666 	-0.286604 	0
0.063992 	-157.633 	44.3635 	-0.285692 	0
0.0645633 	-157.467 	44.3604 	-0.284911 	0
0.0651347 	-157.301 	44.3574 	-0.284131 	0
0.065706 	-157.135 	44.3544 	-0.28335 	0
0.0662774 	-156.969 	44.3514 	-0.282569 	0
0.0668487 	-156.804 	44.3484 	-0.281789 	0
0.0674201 	-156.638 	44.3454 	-0.281008 	0
0.0679915 	-156.472 	44.3424 	-0.280228 	0
0.0685628 	-156.306 	44.3394 	-0.279447 	0
0.0691342 	-156.14 	44.3364 	-0.278666 	0
0.0697055 	-155.975 	44.3334 	-0.277856 	0
0.0702769 	-155.819 	44.331 	-0.276438 	0
0.0708482 	-155.67 	44.3288 	-0.275192 	0
0.0714196 	-155.521 	44.3265 	-0.273946 	0
0.071991 	-155.372 	44.3243 	-0.2727 	0
0.0725623 	-155.222 	44.3221 	-0.271454 	0
0.0731337 	-155.073 	44.3198 	-0.270209 	0
0.073705 	-154.924 	44.3176 	-0.268963 	0
0.0742764 	-154.775 	44.3153 	-0.267717 	0
0.0748477 	-154.625 	44.3131 	-0.266471 	0
0.0754191 	-154.478 	44.3109 	-0.265148 	0
0.0759905 	-154.344 	44.3094 	-0.263445 	0
0.0765618 	-154.213 	44.308 	-0.261874 	0
0.0771332 	-154.083 	44.3066 	-0.260304 	0
0.0777045 	-153.952 	44.3052 	-0.258734 	0
0.0782759 	-153.822 	44.3038 	-0.257164 	0
0.0788472 	-153.692 	44.3023 	-0.255593 	0
0.0794186 	-153.561 	44.3009 	-0.254023 	0
0.0799899 	-153.431 	44.2995 	-0.252453 	0
0.0805613 	-153.307 	44.2985 	-0.250664 	0
0.0811327 	-153.192 	44.2979 	-0.248811 	0
0.081704 	-153.078 	44.2973 	-0.247004 	0
0.0822754 	-152.964 	44.2968 	-0.245198 	0
0.0828467 	-152.851 	44.2962 	-0.243391 	0
0.0834181 	-152.737 	44.2956 	-0.241585 	0
0.0839894 	-152.623 	44.2951 	-0.239778 	0
0.0845608 	-152.509 	44.2945 	-0.237971 	0
0.0851322 	-152.408 	44.2948 	-0.235868 	0
0.0857035 	-152.308 	44.2951 	-0.233887 	0
0.0862749 	-152.209 	44.2954 	-0.231907 	0
0.0868462 	-152.11 	44.2958 	-0.229926 	0
0.0874176 	-152.011 	44.2961 	-0.227945 	0
0.0879889 	-151.912 	44.2964 	-0.225965 	0
0.0885603 	-151.817 	44.2972 	-0.22385 	0
0.0891317 	-151.73 	44.2985 	-0.221712 	0
0.089703 	-151.644 	44.2998 	-0.219603 	0
0.0902744 	-151.557 	44.3012 	-0.217494 	0
0.0908457 	-151.471 	44.3025 	-0.215385 	0
0.0914171 	-151.385 	44.3038 	-0.213276 	0
0.0919884 	-151.305 	44.306 	-0.211006 	0
0.0925598 	-151.23 	44.3085 	-0.208801 	0
0.0931312 	-151.154 	44.311 	-0.206597 	0
0.0937025 	-151.079 	44.3134 	-0.204392 	0
0.0942739 	-151.004 	44.3159 	-0.202188 	0
0.0948452 	-150.935 	44.3194 	-0.199852 	0
0.0954166 	-150.869 	44.3232 	-0.197577 	0
0.0959879 	-150.804 	44.3271 	-0.195302 	0
0.0965593 	-150.738 	44.3309 	-0.193028 	0
0.0971307 	-150.675 	44.3353 	-0.19067 	0
0.097702 	-150.618 	44.3408 	-0.188337 	0
0.0982734 	-150.561 	44.3462 	-0.186011 	0
0.0988447 	-150.504 	44.3517 	-0.183684 	0
0.0994161 	-150.45 	44.3582 	-0.181276 	0
0.0999874 	-150.401 	44.3655 	-0.178912 	0
0.100559 	-150.351 	44.3728 	-0.176549 	0
0.10113 	-150.303 	44.3807 	-0.174134 	0
0.101702 	-150.259 	44.3902 	-0.171735 	0
0.102273 	-150.216 	44.3997 	-0.169346 	0
0.102844 	-150.175 	44.4102 	-0.166903 	0
0.103416 	-150.137 	44.4222 	-0.164496 	0
0.103987 	-150.099 	44.4342 	-0.162089 	0
0.104558 	-150.065 	44.4485 	-0.159632 	0
0.10513 	-150.033 	44.4633 	-0.157214 	0
0.105701 	-150.002 	44.48 	-0.154757 	0
0.106272 	-149.974 	44.4978 	-0.152333 	0
0.106844 	-149.948 	44.5178 	-0.149877 	0
0.107415 	-149.923 	44.5389 	-0.147443 	0
0.107986 	-149.901 	44.563 	-0.144999 	0
0.108558 	-149.881 	44.5891 	-0.142551 	0
0.109129 	-149.863 	44.6175 	-0.14011 	0
0.109701 	-149.847 	44.6488 	-0.13768 	0
0.110272 	-149.834 	44.6833 	-0.135238 	0
0.110843 	-149.822 	44.7048 	-0.13294 	0
0.111415 	-149.809 	44.3786 	-0.126328 	0
0.111986 	-149.807 	41.9882 	-0.0903331 	0
0.112557 	-149.82 	37.9255 	-0.048359 	0
0.113129 	-149.843 	32.5529 	-0.0181796 	0
0.1137 	-149.864 	1.46828e-10 	-4.61703e-15 	0
