0 	-60.8816 	0 	0 	0
0.000571357 	-61.2748 	-0.243944 	-0.107164 	0
0.00114271 	-61.8956 	0.436834 	-0.233579 	0
0.00171407 	-62.4671 	1.12724 	-0.361421 	0
0.00228543 	-62.9521 	1.85574 	-0.489451 	0
0.00285678 	-63.3542 	2.63285 	-0.617685 	0
0.00342814 	-63.6815 	3.46738 	-0.745369 	0
0.0039995 	-63.9481 	4.36575 	-0.872668 	0
0.00457085 	-64.1647 	5.33518 	-0.999455 	0
0.00514221 	-64.3441 	6.38034 	-1.12462 	0
0.00571357 	-64.4969 	7.50769 	-1.24849 	0
0.00628492 	-64.6171 	8.72141 	-1.37067 	0
0.00685628 	-64.6217 	10.0477 	-1.49006 	0
0.00742764 	-64.5754 	11.5352 	-1.60637 	0
0.00799899 	-64.6049 	13.1677 	-1.71585 	0
0.00857035 	-64.6844 	14.9137 	-1.82158 	0
0.00914171 	-64.8127 	16.7502 	-1.92051 	0
0.00971307 	-64.9748 	18.6589 	-2.01593 	0
0.0102844 	-65.2035 	20.5892 	-2.10406 	0
0.0108558 	-65.4895 	22.4978 	-2.1861 	0
0.0114271 	-65.8012 	24.3686 	-2.26287 	0
0.0119985 	-66.1229 	26.241 	-2.33356 	0
0.0125698 	-66.3924 	27.8602 	-2.38877 	0
0.0131412 	-66.8296 	30.3357 	-2.46183 	0
0.0137126 	-67.2714 	32.5449 	-2.5157 	0
0.0142839 	-67.7471 	34.5341 	-2.5536 	0
0.0148553 	-68.2121 	35.3401 	-2.56071 	0
0.0154266 	-68.6715 	35.8508 	-2.56221 	0
0.015998 	-69.1294 	36.2651 	-2.55731 	0
0.0165693 	-69.5724 	36.6714 	-2.55218 	0
0.0171407 	-70.0119 	37.0696 	-2.54678 	0
0.0177121 	-70.4493 	37.4421 	-2.53997 	0
0.0182834 	-70.8565 	37.7975 	-2.53139 	0
0.0188548 	-71.263 	38.1339 	-2.52222 	0
0.0194261 	-71.6886 	38.4521 	-2.51308 	0
0.0199975 	-72.0576 	38.7662 	-2.50199 	0
0.0205688 	-72.4674 	39.0569 	-2.49171 	0
0.0211402 	-72.8289 	39.3471 	-2.47994 	0
0.0217116 	-73.2226 	39.6162 	-2.46879 	0
0.0222829 	-73.5538 	39.8876 	-2.45589 	0
0.0228543 	-73.9568 	40.1366 	-2.44478 	0
0.0234256 	-74.2685 	40.3869 	-2.43121 	0
0.023997 	-74.6198 	40.626 	-2.41861 	0
0.0245683 	-74.9654 	40.8513 	-2.40588 	0
0.0251397 	-75.256 	41.0785 	-2.39179 	0
0.0257111 	-75.5952 	41.2857 	-2.37847 	0
0.0262824 	-75.9194 	41.4778 	-2.36458 	0
0.0268538 	-76.1864 	41.673 	-2.34945 	0
0.0274251 	-76.4721 	41.8549 	-2.33435 	0
0.0279965 	-76.823 	41.9873 	-2.31926 	0
0.0285678 	-77.0647 	42.1286 	-2.30213 	0
0.0291392 	-77.3063 	42.2699 	-2.28501 	0
0.0297106 	-77.5816 	42.3753 	-2.26721 	0
0.0302819 	-77.8966 	42.4299 	-2.24832 	0
0.0308533 	-78.1096 	42.4923 	-2.22757 	0
0.0314246 	-78.3226 	42.5546 	-2.20683 	0
0.031996 	-78.5395 	42.6133 	-2.18607 	0
0.0325673 	-78.8254 	42.6079 	-2.16512 	0
0.0331387 	-79.0569 	42.6034 	-2.14305 	0
0.0337101 	-79.2389 	42.5997 	-2.11997 	0
0.0342814 	-79.4209 	42.596 	-2.09688 	0
0.0348528 	-79.6069 	42.5923 	-2.074 	0
0.0354241 	-79.8542 	42.5887 	-2.05421 	0
0.0359955 	-80.072 	42.5842 	-2.0338 	0
0.0365668 	-80.223 	42.5777 	-2.01197 	0
0.0371382 	-80.374 	42.5712 	-1.99014 	0
0.0377095 	-80.5251 	42.5646 	-1.96831 	0
0.0382809 	-80.696 	42.563 	-1.94763 	0
0.0388523 	-80.9063 	42.5708 	-1.92922 	0
0.0394236 	-81.0878 	42.578 	-1.91026 	0
0.039995 	-81.2096 	42.5835 	-1.89017 	0
0.0405663 	-81.3314 	42.5891 	-1.87008 	0
0.0411377 	-81.4532 	42.5946 	-1.84998 	0
0.041709 	-81.5749 	42.6002 	-1.82989 	0
0.0422804 	-81.738 	42.6042 	-1.81168 	0
0.0428518 	-81.9132 	42.6079 	-1.79402 	0
0.0434231 	-82.0513 	42.6107 	-1.77573 	0
0.0439945 	-82.1468 	42.6126 	-1.75673 	0
0.0445658 	-82.2422 	42.6145 	-1.73772 	0
0.0451372 	-82.3376 	42.6165 	-1.71871 	0
0.0457085 	-82.4331 	42.6184 	-1.6997 	0
0.0462799 	-82.54 	42.6207 	-1.68128 	0
0.0468513 	-82.6821 	42.6243 	-1.66463 	0
0.0474226 	-82.8243 	42.6279 	-1.64799 	0
0.047994 	-82.9239 	42.6305 	-1.63069 	0
0.0485653 	-82.9954 	42.6324 	-1.61296 	0
0.0491367 	-83.067 	42.6344 	-1.59523 	0
0.049708 	-83.1386 	42.6364 	-1.5775 	0
0.0502794 	-83.2101 	42.6384 	-1.55977 	0
0.0508508 	-83.2817 	42.6403 	-1.54204 	0
0.0514221 	-83.3784 	42.643 	-1.5256 	0
0.0519935 	-83.4905 	42.646 	-1.50995 	0
0.0525648 	-83.6027 	42.6491 	-1.4943 	0
0.0531362 	-83.679 	42.6513 	-1.47816 	0
0.0537075 	-83.7303 	42.653 	-1.46168 	0
0.0542789 	-83.7815 	42.6547 	-1.44519 	0
0.0548503 	-83.8328 	42.6564 	-1.42871 	0
0.0554216 	-83.884 	42.6581 	-1.41223 	0
0.055993 	-83.9353 	42.6598 	-1.39575 	0
0.0565643 	-83.9865 	42.6614 	-1.37926 	0
0.0571357 	-84.0613 	42.6638 	-1.3644 	0
0.057707 	-84.145 	42.6664 	-1.35015 	0
0.0582784 	-84.2287 	42.6691 	-1.3359 	0
0.0588497 	-84.2999 	42.6714 	-1.32149 	0
0.0594211 	-84.3345 	42.6729 	-1.30661 	0
0.0599925 	-84.369 	42.6744 	-1.29172 	0
0.0605638 	-84.4035 	42.676 	-1.27683 	0
0.0611352 	-84.4381 	42.6775 	-1.26195 	0
0.0617065 	-84.4726 	42.679 	-1.24706 	0
0.0622779 	-84.5071 	42.6805 	-1.23218 	0
0.0628492 	-84.5417 	42.682 	-1.21729 	0
0.0634206 	-84.5874 	42.6839 	-1.20298 	0
0.063992 	-84.6508 	42.6863 	-1.18959 	0
0.0645633 	-84.7142 	42.6887 	-1.17619 	0
0.0651347 	-84.7777 	42.6912 	-1.16279 	0
0.065706 	-84.8051 	42.6928 	-1.14896 	0
0.0662774 	-84.829 	42.6943 	-1.13509 	0
0.0668487 	-84.8529 	42.6959 	-1.12121 	0
0.0674201 	-84.8768 	42.6974 	-1.10734 	0
0.0679915 	-84.9008 	42.6989 	-1.09347 	0
0.0685628 	-84.9247 	42.7005 	-1.07959 	0
0.0691342 	-84.9486 	42.702 	-1.06572 	0
0.0697055 	-84.9737 	42.7036 	-1.05188 	0
0.0702769 	-85.0239 	42.7061 	-1.03877 	0
0.0708482 	-85.074 	42.7086 	-1.02565 	0
0.0714196 	-85.1236 	42.7111 	-1.01254 	0
0.071991 	-85.1407 	42.7128 	-0.999067 	0
0.0725623 	-85.1577 	42.7145 	-0.985599 	0
0.0731337 	-85.1748 	42.7162 	-0.97213 	0
0.073705 	-85.1918 	42.718 	-0.958662 	0
0.0742764 	-85.2089 	42.7197 	-0.945193 	0
0.0748477 	-85.226 	42.7214 	-0.931725 	0
0.0754191 	-85.2465 	42.7233 	-0.918392 	0
0.0759905 	-85.286 	42.7259 	-0.905797 	0
0.0765618 	-85.3255 	42.7286 	-0.893202 	0
0.0771332 	-85.3508 	42.7309 	-0.880463 	0
0.0777045 	-85.3626 	42.7329 	-0.867586 	0
0.0782759 	-85.3744 	42.7349 	-0.854709 	0
0.0788472 	-85.3861 	42.7369 	-0.841832 	0
0.0794186 	-85.3979 	42.7389 	-0.828955 	0
0.0799899 	-85.4097 	42.7409 	-0.816078 	0
0.0805613 	-85.4321 	42.7434 	-0.803547 	0
0.0811327 	-85.464 	42.7464 	-0.791327 	0
0.081704 	-85.4906 	42.7492 	-0.779055 	0
0.0822754 	-85.4991 	42.7516 	-0.766602 	0
0.0828467 	-85.5075 	42.754 	-0.75415 	0
0.0834181 	-85.5159 	42.7564 	-0.741697 	0
0.0839894 	-85.5243 	42.7588 	-0.729245 	0
0.0845608 	-85.5328 	42.7613 	-0.716793 	0
0.0851322 	-85.559 	42.7647 	-0.704867 	0
0.0857035 	-85.5852 	42.7681 	-0.69294 	0
0.0862749 	-85.5915 	42.7711 	-0.680817 	0
0.0868462 	-85.5977 	42.7741 	-0.668693 	0
0.0874176 	-85.6038 	42.777 	-0.656569 	0
0.0879889 	-85.61 	42.78 	-0.644445 	0
0.0885603 	-85.623 	42.7835 	-0.632502 	0
0.0891317 	-85.6449 	42.7876 	-0.620792 	0
0.089703 	-85.655 	42.7914 	-0.608963 	0
0.0902744 	-85.6596 	42.7951 	-0.59708 	0
0.0908457 	-85.6643 	42.7988 	-0.585197 	0
0.0914171 	-85.6689 	42.8025 	-0.573314 	0
0.0919884 	-85.6834 	42.8072 	-0.561678 	0
0.0925598 	-85.6992 	42.8121 	-0.550114 	0
0.0931312 	-85.7027 	42.8168 	-0.538423 	0
0.0937025 	-85.7063 	42.8214 	-0.526732 	0
0.0942739 	-85.7098 	42.8261 	-0.51504 	0
0.0948452 	-85.7222 	42.8319 	-0.503556 	0
0.0954166 	-85.7329 	42.838 	-0.492098 	0
0.0959879 	-85.7357 	42.8439 	-0.480552 	0
0.0965593 	-85.7385 	42.8497 	-0.469007 	0
0.0971307 	-85.7452 	42.8563 	-0.457553 	0
0.097702 	-85.7565 	42.864 	-0.446233 	0
0.0982734 	-85.7587 	42.8714 	-0.434807 	0
0.0988447 	-85.7609 	42.8788 	-0.423381 	0
0.0994161 	-85.7685 	42.8875 	-0.412079 	0
0.0999874 	-85.7748 	42.8969 	-0.400803 	0
0.100559 	-85.7766 	42.9062 	-0.38947 	0
0.10113 	-85.7804 	42.9161 	-0.378188 	0
0.101702 	-85.7874 	42.9278 	-0.367012 	0
0.102273 	-85.7889 	42.9393 	-0.35576 	0
0.102844 	-85.7931 	42.9519 	-0.344574 	0
0.103416 	-85.7974 	42.9661 	-0.333437 	0
0.103987 	-85.7987 	42.9802 	-0.322252 	0
0.104558 	-85.8043 	42.9968 	-0.311184 	0
0.10513 	-85.8053 	43.0138 	-0.300046 	0
0.105701 	-85.8097 	43.0329 	-0.289017 	0
0.106272 	-85.8106 	43.0529 	-0.277948 	0
0.106844 	-85.8142 	43.0755 	-0.266953 	0
0.107415 	-85.8152 	43.0991 	-0.255911 	0
0.107986 	-85.8175 	43.1265 	-0.245005 	0
0.108558 	-85.8193 	43.1396 	-0.234144 	0
0.109129 	-85.8192 	43.0521 	-0.221756 	0
0.109701 	-85.8162 	42.6694 	-0.204652 	0
0.110272 	-85.815 	41.5517 	-0.175681 	0
0.110843 	-85.8198 	39.7158 	-0.138273 	0
0.111415 	-85.8262 	37.5222 	-0.101792 	0
0.111986 	-85.8384 	35.1059 	-0.0695024 	0
0.112557 	-85.8578 	32.3069 	-0.0416778 	0
0.113129 	-85.8837 	28.1393 	-0.0176139 	0
0.1137 	-85.9046 	1.19188e-10 	-4.26045e-15 	0
