0.0131412 	-183.42 	20.9113 	-0.0186078 	0
0.0137126 	-183.399 	25.1487 	-0.0421812 	0
0.0142839 	-183.328 	28.289 	-0.0564948 	0
0.0148553 	-183.224 	31.2367 	-0.0607899 	0
0.0154266 	-183.09 	33.6118 	-0.0622369 	0
0.015998 	-182.933 	34.9698 	-0.0745226 	0
0.0165693 	-182.762 	35.8365 	-0.090041 	0
0.0171407 	-182.568 	36.5464 	-0.105425 	0
0.0177121 	-182.359 	37.1727 	-0.120216 	0
0.0182834 	-182.14 	37.7401 	-0.134375 	0
0.0188548 	-181.897 	38.2482 	-0.148206 	0
0.0194261 	-181.628 	38.7108 	-0.161652 	0
0.0199975 	-181.378 	39.1544 	-0.17434 	0
0.0205688 	-181.077 	39.5459 	-0.186804 	0
0.0211402 	-180.802 	39.932 	-0.198656 	0
0.0217116 	-180.478 	40.2766 	-0.210208 	0
0.0222829 	-180.19 	40.6223 	-0.221283 	0
0.0228543 	-179.847 	40.9286 	-0.231894 	0
0.0234256 	-179.529 	41.2331 	-0.242169 	0
0.023997 	-179.198 	41.5225 	-0.252083 	0
0.0245683 	-178.837 	41.7905 	-0.261601 	0
0.0251397 	-178.51 	42.0594 	-0.270858 	0
0.0257111 	-178.156 	42.3114 	-0.279677 	0
0.0262824 	-177.777 	42.548 	-0.288095 	0
0.0268538 	-177.433 	42.7856 	-0.296341 	0
0.0274251 	-177.08 	43.0171 	-0.304403 	0
0.0279965 	-176.69 	43.2253 	-0.311781 	0
0.0285678 	-176.314 	43.4339 	-0.319119 	0
0.0291392 	-175.957 	43.6431 	-0.326404 	0
0.0297106 	-175.582 	43.8309 	-0.333133 	0
0.0302819 	-175.183 	43.9877 	-0.339063 	0
0.0308533 	-174.795 	44.145 	-0.344993 	0
0.0314246 	-174.426 	44.3031 	-0.350922 	0
0.031996 	-174.055 	44.4553 	-0.356751 	0
0.0325673 	-173.656 	44.5065 	-0.36084 	0
0.0331387 	-173.257 	44.5577 	-0.364928 	0
0.0337101 	-172.878 	44.6096 	-0.369095 	0
0.0342814 	-172.506 	44.6619 	-0.373291 	0
0.0348528 	-172.133 	44.7103 	-0.377395 	0
0.0354241 	-171.748 	44.6993 	-0.380085 	0
0.0359955 	-171.362 	44.6884 	-0.382774 	0
0.0365668 	-170.986 	44.6777 	-0.385532 	0
0.0371382 	-170.624 	44.6674 	-0.388392 	0
0.0377095 	-170.262 	44.6571 	-0.391252 	0
0.0382809 	-169.898 	44.6471 	-0.393738 	0
0.0388523 	-169.531 	44.6377 	-0.39548 	0
0.0394236 	-169.163 	44.6283 	-0.397223 	0
0.039995 	-168.801 	44.619 	-0.399021 	0
0.0405663 	-168.454 	44.61 	-0.400956 	0
0.0411377 	-168.106 	44.6011 	-0.402891 	0
0.041709 	-167.759 	44.5921 	-0.404826 	0
0.0422804 	-167.412 	44.5836 	-0.405933 	0
0.0428518 	-167.066 	44.5751 	-0.406795 	0
0.0434231 	-166.72 	44.5667 	-0.407657 	0
0.0439945 	-166.378 	44.5583 	-0.408576 	0
0.0445658 	-166.049 	44.5503 	-0.409645 	0
0.0451372 	-165.72 	44.5422 	-0.410714 	0
0.0457085 	-165.391 	44.5341 	-0.411782 	0
0.0462799 	-165.064 	44.5262 	-0.412586 	0
0.0468513 	-164.743 	44.5187 	-0.412578 	0
0.0474226 	-164.422 	44.5112 	-0.412569 	0
0.047994 	-164.102 	44.5037 	-0.412561 	0
0.0485653 	-163.785 	44.4963 	-0.412604 	0
0.0491367 	-163.478 	44.4891 	-0.412812 	0
0.049708 	-163.172 	44.482 	-0.413019 	0
0.0502794 	-162.865 	44.4748 	-0.413227 	0
0.0508508 	-162.559 	44.4676 	-0.413435 	0
0.0514221 	-162.262 	44.4609 	-0.413012 	0
0.0519935 	-161.971 	44.4544 	-0.4122 	0
0.0525648 	-161.68 	44.4479 	-0.411388 	0
0.0531362 	-161.389 	44.4414 	-0.410577 	0
0.0537075 	-161.099 	44.435 	-0.40977 	0
0.0542789 	-160.819 	44.4287 	-0.409177 	0
0.0548503 	-160.54 	44.4225 	-0.408585 	0
0.0554216 	-160.26 	44.4163 	-0.407992 	0
0.055993 	-159.981 	44.4101 	-0.4074 	0
0.0565643 	-159.701 	44.4038 	-0.406807 	0
0.0571357 	-159.442 	44.3983 	-0.405551 	0
0.057707 	-159.191 	44.3931 	-0.404045 	0
0.0582784 	-158.94 	44.3878 	-0.402539 	0
0.0588497 	-158.689 	44.3826 	-0.401034 	0
0.0594211 	-158.438 	44.3773 	-0.399528 	0
0.0599925 	-158.191 	44.3722 	-0.39812 	0
0.0605638 	-157.949 	44.3671 	-0.396827 	0
0.0611352 	-157.707 	44.3621 	-0.395534 	0
0.0617065 	-157.464 	44.357 	-0.394241 	0
0.0622779 	-157.222 	44.3519 	-0.392948 	0
0.0628492 	-156.98 	44.3469 	-0.391655 	0
0.0634206 	-156.747 	44.3422 	-0.390055 	0
0.063992 	-156.529 	44.338 	-0.387965 	0
0.0645633 	-156.311 	44.3339 	-0.385875 	0
0.0651347 	-156.093 	44.3297 	-0.383785 	0
0.065706 	-155.875 	44.3255 	-0.381695 	0
0.0662774 	-155.658 	44.3214 	-0.37963 	0
0.0668487 	-155.447 	44.3174 	-0.377748 	0
0.0674201 	-155.237 	44.3134 	-0.375866 	0
0.0679915 	-155.026 	44.3094 	-0.373985 	0
0.0685628 	-154.815 	44.3054 	-0.372103 	0
0.0691342 	-154.604 	44.3014 	-0.370221 	0
0.0697055 	-154.394 	44.2974 	-0.368307 	0
0.0702769 	-154.201 	44.2942 	-0.365717 	0
0.0708482 	-154.009 	44.291 	-0.363128 	0
0.0714196 	-153.817 	44.2878 	-0.360538 	0
0.071991 	-153.625 	44.2846 	-0.357949 	0
0.0725623 	-153.435 	44.2815 	-0.355453 	0
0.0731337 	-153.249 	44.2784 	-0.353071 	0
0.073705 	-153.062 	44.2753 	-0.350689 	0
0.0742764 	-152.875 	44.2723 	-0.348307 	0
0.0748477 	-152.689 	44.2692 	-0.345925 	0
0.0754191 	-152.505 	44.2662 	-0.343462 	0
0.0759905 	-152.34 	44.2641 	-0.340559 	0
0.0765618 	-152.174 	44.2619 	-0.337656 	0
0.0771332 	-152.009 	44.2597 	-0.334754 	0
0.0777045 	-151.844 	44.2575 	-0.331881 	0
0.0782759 	-151.683 	44.2554 	-0.32918 	0
0.0788472 	-151.522 	44.2533 	-0.326478 	0
0.0794186 	-151.36 	44.2512 	-0.323777 	0
0.0799899 	-151.199 	44.2491 	-0.321076 	0
0.0805613 	-151.048 	44.2475 	-0.318151 	0
0.0811327 	-150.905 	44.2463 	-0.315025 	0
0.081704 	-150.762 	44.2451 	-0.311899 	0
0.0822754 	-150.619 	44.2439 	-0.308779 	0
0.0828467 	-150.48 	44.2427 	-0.30585 	0
0.0834181 	-150.34 	44.2416 	-0.30292 	0
0.0839894 	-150.201 	44.2405 	-0.299991 	0
0.0845608 	-150.062 	44.2393 	-0.297061 	0
0.0851322 	-149.938 	44.2391 	-0.293775 	0
0.0857035 	-149.814 	44.2389 	-0.290488 	0
0.0862749 	-149.69 	44.2387 	-0.287202 	0
0.0868462 	-149.569 	44.2386 	-0.284099 	0
0.0874176 	-149.448 	44.2384 	-0.281005 	0
0.0879889 	-149.328 	44.2383 	-0.277912 	0
0.0885603 	-149.213 	44.2386 	-0.274682 	0
0.0891317 	-149.105 	44.2395 	-0.27128 	0
0.089703 	-148.998 	44.2404 	-0.267877 	0
0.0902744 	-148.892 	44.2413 	-0.264622 	0
0.0908457 	-148.788 	44.2423 	-0.261408 	0
0.0914171 	-148.683 	44.2432 	-0.258195 	0
0.0919884 	-148.586 	44.245 	-0.254785 	0
0.0925598 	-148.493 	44.2471 	-0.251298 	0
0.0931312 	-148.4 	44.2492 	-0.247883 	0
0.0937025 	-148.309 	44.2514 	-0.244582 	0
0.0942739 	-148.218 	44.2535 	-0.241281 	0
0.0948452 	-148.134 	44.2567 	-0.237801 	0
0.0954166 	-148.053 	44.2602 	-0.234252 	0
0.0959879 	-147.973 	44.2638 	-0.230831 	0
0.0965593 	-147.893 	44.2673 	-0.227466 	0
0.0971307 	-147.817 	44.2715 	-0.224018 	0
0.097702 	-147.746 	44.2767 	-0.220425 	0
0.0982734 	-147.676 	44.2819 	-0.21694 	0
0.0988447 	-147.607 	44.2871 	-0.213529 	0
0.0994161 	-147.542 	44.2934 	-0.209998 	0
0.0999874 	-147.48 	44.3005 	-0.206378 	0
0.100559 	-147.42 	44.3076 	-0.202935 	0
0.10113 	-147.361 	44.3153 	-0.199441 	0
0.101702 	-147.307 	44.3247 	-0.195795 	0
0.102273 	-147.254 	44.3341 	-0.192313 	0
0.102844 	-147.203 	44.3444 	-0.188778 	0
0.103416 	-147.156 	44.3563 	-0.185153 	0
0.103987 	-147.11 	44.3682 	-0.181674 	0
0.104558 	-147.068 	44.3824 	-0.178038 	0
0.10513 	-147.027 	44.3972 	-0.174517 	0
0.105701 	-146.99 	44.4138 	-0.170914 	0
0.106272 	-146.954 	44.4316 	-0.167378 	0
0.106844 	-146.921 	44.4516 	-0.163758 	0
0.107415 	-146.89 	44.4727 	-0.160248 	0
0.107986 	-146.862 	44.4968 	-0.156647 	0
0.108558 	-146.837 	44.523 	-0.153061 	0
0.109129 	-146.814 	44.5515 	-0.149515 	0
0.109701 	-146.793 	44.5829 	-0.145955 	0
0.110272 	-146.775 	44.6159 	-0.142465 	0
0.110843 	-146.758 	44.5715 	-0.138317 	0
0.111415 	-146.742 	43.8272 	-0.124623 	0
0.111986 	-146.74 	41.0379 	-0.0837084 	0
0.112557 	-146.749 	37.1614 	-0.0455517 	0
0.113129 	-146.77 	32.0363 	-0.0178197 	0
0.1137 	-146.791 	1.43845e-10 	-4.61264e-15 	0
