0.0131412 	-150.642 	20.0762 	-0.00508279 	0
0.0137126 	-150.626 	24.9651 	-0.00386973 	0
0.0142839 	-150.599 	28.9412 	0.0143552 	0
0.0148553 	-150.569 	31.9557 	0.0352615 	0
0.0154266 	-150.55 	33.5251 	0.0377731 	0
0.015998 	-150.529 	34.506 	0.0344126 	0
0.0165693 	-150.505 	35.3281 	0.0308224 	0
0.0171407 	-150.478 	36.0413 	0.0271413 	0
0.0177121 	-150.448 	36.6741 	0.0234058 	0
0.0182834 	-150.415 	37.2485 	0.0196455 	0
0.0188548 	-150.379 	37.7645 	0.015794 	0
0.0194261 	-150.34 	38.2357 	0.0120043 	0
0.0199975 	-150.3 	38.6871 	0.0082462 	0
0.0205688 	-150.254 	39.0876 	0.00439817 	0
0.0211402 	-150.209 	39.4819 	0.000678928 	0
0.0217116 	-150.158 	39.8357 	-0.00312438 	0
0.0222829 	-150.108 	40.1895 	-0.00681033 	0
0.0228543 	-150.051 	40.505 	-0.0105314 	0
0.0234256 	-149.993 	40.8179 	-0.0142636 	0
0.023997 	-149.936 	41.1161 	-0.0178159 	0
0.0245683 	-149.871 	41.3931 	-0.0214606 	0
0.0251397 	-149.808 	41.6702 	-0.0250588 	0
0.0257111 	-149.742 	41.9308 	-0.0285268 	0
0.0262824 	-149.669 	42.1763 	-0.0320448 	0
0.0268538 	-149.597 	42.4218 	-0.0355627 	0
0.0274251 	-149.528 	42.6616 	-0.0388876 	0
0.0279965 	-149.448 	42.8792 	-0.0422751 	0
0.0285678 	-149.368 	43.0968 	-0.0456626 	0
0.0291392 	-149.29 	43.3146 	-0.0489912 	0
0.0297106 	-149.21 	43.5124 	-0.0521574 	0
0.0302819 	-149.121 	43.6815 	-0.0552871 	0
0.0308533 	-149.032 	43.8506 	-0.0584167 	0
0.0314246 	-148.944 	44.0197 	-0.0615339 	0
0.031996 	-148.862 	44.1833 	-0.0644875 	0
0.0325673 	-148.765 	44.2461 	-0.0672671 	0
0.0331387 	-148.669 	44.3089 	-0.0700467 	0
0.0337101 	-148.572 	44.3717 	-0.0728262 	0
0.0342814 	-148.478 	44.4345 	-0.0755777 	0
0.0348528 	-148.389 	44.4936 	-0.0782245 	0
0.0354241 	-148.287 	44.4903 	-0.0807026 	0
0.0359955 	-148.186 	44.487 	-0.0831808 	0
0.0365668 	-148.084 	44.4837 	-0.085659 	0
0.0371382 	-147.983 	44.4803 	-0.0881372 	0
0.0377095 	-147.887 	44.4772 	-0.0905575 	0
0.0382809 	-147.79 	44.4739 	-0.0928859 	0
0.0388523 	-147.685 	44.4704 	-0.0950866 	0
0.0394236 	-147.579 	44.4668 	-0.0972873 	0
0.039995 	-147.474 	44.4633 	-0.099488 	0
0.0405663 	-147.368 	44.4597 	-0.101689 	0
0.0411377 	-147.266 	44.4562 	-0.103871 	0
0.041709 	-147.169 	44.4528 	-0.106013 	0
0.0422804 	-147.064 	44.4496 	-0.10797 	0
0.0428518 	-146.955 	44.4465 	-0.109872 	0
0.0434231 	-146.847 	44.4433 	-0.111774 	0
0.0439945 	-146.739 	44.4402 	-0.113676 	0
0.0445658 	-146.63 	44.4371 	-0.115579 	0
0.0451372 	-146.522 	44.4339 	-0.11748 	0
0.0457085 	-146.423 	44.431 	-0.119351 	0
0.0462799 	-146.321 	44.4281 	-0.121145 	0
0.0468513 	-146.211 	44.4253 	-0.122701 	0
0.0474226 	-146.102 	44.4225 	-0.124257 	0
0.047994 	-145.993 	44.4197 	-0.125812 	0
0.0485653 	-145.884 	44.4169 	-0.127368 	0
0.0491367 	-145.774 	44.4142 	-0.128924 	0
0.049708 	-145.665 	44.4114 	-0.13048 	0
0.0502794 	-145.561 	44.4087 	-0.132035 	0
0.0508508 	-145.461 	44.4061 	-0.133589 	0
0.0514221 	-145.356 	44.4037 	-0.134911 	0
0.0519935 	-145.248 	44.4013 	-0.136089 	0
0.0525648 	-145.14 	44.3989 	-0.137267 	0
0.0531362 	-145.032 	44.3965 	-0.138446 	0
0.0537075 	-144.925 	44.3941 	-0.139624 	0
0.0542789 	-144.817 	44.3917 	-0.140802 	0
0.0548503 	-144.709 	44.3893 	-0.14198 	0
0.0554216 	-144.601 	44.3869 	-0.143159 	0
0.055993 	-144.502 	44.3847 	-0.144366 	0
0.0565643 	-144.402 	44.3825 	-0.145573 	0
0.0571357 	-144.302 	44.3805 	-0.146456 	0
0.057707 	-144.201 	44.3786 	-0.147219 	0
0.0582784 	-144.101 	44.3768 	-0.147981 	0
0.0588497 	-144 	44.3749 	-0.148743 	0
0.0594211 	-143.899 	44.373 	-0.149505 	0
0.0599925 	-143.799 	44.3711 	-0.150267 	0
0.0605638 	-143.698 	44.3692 	-0.151029 	0
0.0611352 	-143.597 	44.3673 	-0.151792 	0
0.0617065 	-143.497 	44.3654 	-0.152556 	0
0.0622779 	-143.404 	44.3637 	-0.153374 	0
0.0628492 	-143.311 	44.3619 	-0.154193 	0
0.0634206 	-143.217 	44.3603 	-0.154849 	0
0.063992 	-143.124 	44.359 	-0.155247 	0
0.0645633 	-143.031 	44.3576 	-0.155645 	0
0.0651347 	-142.938 	44.3562 	-0.156044 	0
0.065706 	-142.844 	44.3548 	-0.156442 	0
0.0662774 	-142.751 	44.3534 	-0.156841 	0
0.0668487 	-142.658 	44.352 	-0.157239 	0
0.0674201 	-142.564 	44.3507 	-0.157637 	0
0.0679915 	-142.471 	44.3493 	-0.158036 	0
0.0685628 	-142.382 	44.348 	-0.15849 	0
0.0691342 	-142.296 	44.3467 	-0.158968 	0
0.0697055 	-142.209 	44.3455 	-0.159429 	0
0.0702769 	-142.122 	44.3447 	-0.159527 	0
0.0708482 	-142.036 	44.3438 	-0.159625 	0
0.0714196 	-141.949 	44.343 	-0.159722 	0
0.071991 	-141.863 	44.3422 	-0.15982 	0
0.0725623 	-141.776 	44.3413 	-0.159918 	0
0.0731337 	-141.69 	44.3405 	-0.160016 	0
0.073705 	-141.603 	44.3396 	-0.160114 	0
0.0742764 	-141.52 	44.3388 	-0.160259 	0
0.0748477 	-141.439 	44.3381 	-0.160458 	0
0.0754191 	-141.359 	44.3375 	-0.160603 	0
0.0759905 	-141.282 	44.3373 	-0.160461 	0
0.0765618 	-141.205 	44.337 	-0.160318 	0
0.0771332 	-141.128 	44.3368 	-0.160176 	0
0.0777045 	-141.051 	44.3366 	-0.160033 	0
0.0782759 	-140.974 	44.3364 	-0.15989 	0
0.0788472 	-140.896 	44.3361 	-0.159748 	0
0.0794186 	-140.822 	44.336 	-0.159668 	0
0.0799899 	-140.75 	44.3359 	-0.159639 	0
0.0805613 	-140.68 	44.336 	-0.159455 	0
0.0811327 	-140.612 	44.3365 	-0.159131 	0
0.081704 	-140.544 	44.3369 	-0.158807 	0
0.0822754 	-140.476 	44.3374 	-0.158483 	0
0.0828467 	-140.408 	44.3378 	-0.15816 	0
0.0834181 	-140.34 	44.3382 	-0.157836 	0
0.0839894 	-140.275 	44.3388 	-0.157606 	0
0.0845608 	-140.211 	44.3393 	-0.157405 	0
0.0851322 	-140.152 	44.3405 	-0.156943 	0
0.0857035 	-140.092 	44.3417 	-0.156481 	0
0.0862749 	-140.032 	44.3429 	-0.156018 	0
0.0868462 	-139.972 	44.3441 	-0.155556 	0
0.0874176 	-139.913 	44.3453 	-0.155094 	0
0.0879889 	-139.857 	44.3466 	-0.154759 	0
0.0885603 	-139.803 	44.3482 	-0.154324 	0
0.0891317 	-139.75 	44.3503 	-0.153757 	0
0.089703 	-139.698 	44.3524 	-0.153191 	0
0.0902744 	-139.646 	44.3545 	-0.152624 	0
0.0908457 	-139.594 	44.3566 	-0.152065 	0
0.0914171 	-139.545 	44.3587 	-0.151633 	0
0.0919884 	-139.499 	44.3616 	-0.151049 	0
0.0925598 	-139.454 	44.3647 	-0.150403 	0
0.0931312 	-139.408 	44.3678 	-0.149758 	0
0.0937025 	-139.363 	44.3709 	-0.149112 	0
0.0942739 	-139.32 	44.3741 	-0.148589 	0
0.0948452 	-139.28 	44.3782 	-0.147939 	0
0.0954166 	-139.241 	44.3826 	-0.147234 	0
0.0959879 	-139.202 	44.3869 	-0.146529 	0
0.0965593 	-139.163 	44.3914 	-0.145878 	0
0.0971307 	-139.128 	44.3963 	-0.145246 	0
0.097702 	-139.094 	44.4022 	-0.144497 	0
0.0982734 	-139.06 	44.4081 	-0.143747 	0
0.0988447 	-139.027 	44.414 	-0.143063 	0
0.0994161 	-138.997 	44.421 	-0.142357 	0
0.0999874 	-138.968 	44.4287 	-0.141575 	0
0.100559 	-138.939 	44.4364 	-0.140797 	0
0.10113 	-138.912 	44.4447 	-0.140118 	0
0.101702 	-138.887 	44.4545 	-0.139313 	0
0.102273 	-138.863 	44.4643 	-0.138514 	0
0.102844 	-138.84 	44.475 	-0.137796 	0
0.103416 	-138.819 	44.4873 	-0.136976 	0
0.103987 	-138.798 	44.4995 	-0.136218 	0
0.104558 	-138.78 	44.514 	-0.135414 	0
0.10513 	-138.762 	44.5289 	-0.134606 	0
0.105701 	-138.746 	44.5457 	-0.133826 	0
0.106272 	-138.731 	44.5636 	-0.133015 	0
0.106844 	-138.718 	44.5837 	-0.13222 	0
0.107415 	-138.706 	44.6047 	-0.13144 	0
0.107986 	-138.695 	44.6288 	-0.130603 	0
0.108558 	-138.686 	44.6548 	-0.129818 	0
0.109129 	-138.678 	44.6831 	-0.12903 	0
0.109701 	-138.672 	44.7142 	-0.128239 	0
0.110272 	-138.667 	44.7483 	-0.127444 	0
0.110843 	-138.663 	44.786 	-0.126667 	0
0.111415 	-138.66 	44.8098 	-0.125999 	0
0.111986 	-138.657 	43.8755 	-0.112341 	0
0.112557 	-138.673 	39.8002 	-0.0619535 	0
0.113129 	-138.703 	33.727 	-0.0213114 	0
0.1137 	-138.729 	1.57338e-10 	-5.25376e-15 	0
