0 	-62.0609 	0 	0 	0
0.000571357 	-62.4866 	-1.68654 	-0.115025 	0
0.00114271 	-63.1615 	-1.0258 	-0.251263 	0
0.00171407 	-63.7823 	-0.364882 	-0.389051 	0
0.00228543 	-64.3049 	0.331402 	-0.527408 	0
0.00285678 	-64.729 	1.08162 	-0.66569 	0
0.00342814 	-65.0663 	1.90072 	-0.80391 	0
0.0039995 	-65.3347 	2.79783 	-0.941766 	0
0.00457085 	-65.5496 	3.78146 	-1.07919 	0
0.00514221 	-65.7244 	4.85921 	-1.21612 	0
0.00571357 	-65.8722 	6.03554 	-1.35244 	0
0.00628492 	-65.932 	7.32145 	-1.48749 	0
0.00685628 	-65.8749 	8.76561 	-1.62104 	0
0.00742764 	-65.8489 	10.3871 	-1.75245 	0
0.00799899 	-65.8884 	12.1571 	-1.88029 	0
0.00857035 	-65.9519 	14.0324 	-2.00526 	0
0.00914171 	-66.0426 	16.0047 	-2.12581 	0
0.00971307 	-66.1619 	18.0382 	-2.24274 	0
0.0102844 	-66.3346 	20.0869 	-2.3539 	0
0.0108558 	-66.5474 	22.0962 	-2.45834 	0
0.0114271 	-66.7572 	24.0589 	-2.55539 	0
0.0119985 	-66.9503 	26.0411 	-2.64486 	0
0.0125698 	-67.1028 	27.7498 	-2.71344 	0
0.0131412 	-67.3463 	30.3808 	-2.7989 	0
0.0137126 	-67.6368 	32.8921 	-2.86025 	0
0.0142839 	-67.978 	34.7554 	-2.89058 	0
0.0148553 	-68.2948 	35.3611 	-2.88786 	0
0.0154266 	-68.6028 	35.9163 	-2.88552 	0
0.015998 	-68.9081 	36.3326 	-2.87281 	0
0.0165693 	-69.199 	36.7532 	-2.8612 	0
0.0171407 	-69.4858 	37.158 	-2.84878 	0
0.0177121 	-69.7685 	37.5387 	-2.83504 	0
0.0182834 	-70.0271 	37.9017 	-2.82023 	0
0.0188548 	-70.2852 	38.2422 	-2.80438 	0
0.0194261 	-70.5524 	38.5654 	-2.78811 	0
0.0199975 	-70.7802 	38.8821 	-2.7711 	0
0.0205688 	-71.0321 	39.1763 	-2.75385 	0
0.0211402 	-71.2507 	39.4682 	-2.73613 	0
0.0217116 	-71.4878 	39.7398 	-2.71827 	0
0.0222829 	-71.6843 	40.0119 	-2.6999 	0
0.0228543 	-71.9214 	40.2633 	-2.68186 	0
0.0234256 	-72.1011 	40.5138 	-2.66312 	0
0.023997 	-72.3013 	40.7545 	-2.64461 	0
0.0245683 	-72.4987 	40.9818 	-2.62608 	0
0.0251397 	-72.6609 	41.2093 	-2.60715 	0
0.0257111 	-72.8469 	41.4201 	-2.58823 	0
0.0262824 	-73.0256 	41.6161 	-2.56904 	0
0.0268538 	-73.1685 	41.8129 	-2.5495 	0
0.0274251 	-73.3202 	41.9983 	-2.52972 	0
0.0279965 	-73.5055 	42.1406 	-2.50908 	0
0.0285678 	-73.6304 	42.2853 	-2.48797 	0
0.0291392 	-73.7537 	42.4301 	-2.46685 	0
0.0297106 	-73.8922 	42.5416 	-2.44452 	0
0.0302819 	-74.0524 	42.6051 	-2.42043 	0
0.0308533 	-74.1547 	42.6711 	-2.39594 	0
0.0314246 	-74.2566 	42.7371 	-2.37145 	0
0.031996 	-74.3603 	42.7994 	-2.34685 	0
0.0325673 	-74.4947 	42.7958 	-2.32061 	0
0.0331387 	-74.6061 	42.7924 	-2.29417 	0
0.0337101 	-74.6871 	42.7892 	-2.26746 	0
0.0342814 	-74.7681 	42.7859 	-2.24076 	0
0.0348528 	-74.8508 	42.7825 	-2.21418 	0
0.0354241 	-74.96 	42.7753 	-2.18956 	0
0.0359955 	-75.0597 	42.768 	-2.16484 	0
0.0365668 	-75.1212 	42.7595 	-2.13975 	0
0.0371382 	-75.1827 	42.7511 	-2.11466 	0
0.0377095 	-75.2441 	42.7427 	-2.08957 	0
0.0382809 	-75.3137 	42.7388 	-2.06537 	0
0.0388523 	-75.3992 	42.7439 	-2.04293 	0
0.0394236 	-75.4763 	42.7488 	-2.02041 	0
0.039995 	-75.5195 	42.7528 	-1.9976 	0
0.0405663 	-75.5627 	42.7568 	-1.97479 	0
0.0411377 	-75.6059 	42.7607 	-1.95198 	0
0.041709 	-75.649 	42.7647 	-1.92916 	0
0.0422804 	-75.7091 	42.7669 	-1.90778 	0
0.0428518 	-75.7741 	42.7686 	-1.88683 	0
0.0434231 	-75.8273 	42.77 	-1.86578 	0
0.0439945 	-75.8554 	42.7709 	-1.84454 	0
0.0445658 	-75.8835 	42.7717 	-1.82331 	0
0.0451372 	-75.9116 	42.7725 	-1.80207 	0
0.0457085 	-75.9398 	42.7734 	-1.78084 	0
0.0462799 	-75.9725 	42.7745 	-1.76007 	0
0.0468513 	-76.0191 	42.7763 	-1.74076 	0
0.0474226 	-76.0658 	42.778 	-1.72145 	0
0.047994 	-76.0986 	42.7795 	-1.70205 	0
0.0485653 	-76.1137 	42.7806 	-1.68253 	0
0.0491367 	-76.1288 	42.7816 	-1.663 	0
0.049708 	-76.1439 	42.7826 	-1.64348 	0
0.0502794 	-76.1589 	42.7837 	-1.62396 	0
0.0508508 	-76.174 	42.7847 	-1.60443 	0
0.0514221 	-76.1993 	42.7861 	-1.58602 	0
0.0519935 	-76.231 	42.7877 	-1.5683 	0
0.0525648 	-76.2626 	42.7893 	-1.55058 	0
0.0531362 	-76.2837 	42.7907 	-1.5328 	0
0.0537075 	-76.2889 	42.7916 	-1.51492 	0
0.0542789 	-76.2941 	42.7926 	-1.49705 	0
0.0548503 	-76.2992 	42.7936 	-1.47918 	0
0.0554216 	-76.3044 	42.7946 	-1.4613 	0
0.055993 	-76.3096 	42.7956 	-1.44343 	0
0.0565643 	-76.3148 	42.7965 	-1.42555 	0
0.0571357 	-76.3303 	42.7979 	-1.40917 	0
0.057707 	-76.3497 	42.7994 	-1.39334 	0
0.0582784 	-76.3691 	42.8009 	-1.37751 	0
0.0588497 	-76.3877 	42.8023 	-1.36168 	0
0.0594211 	-76.3859 	42.8033 	-1.34575 	0
0.0599925 	-76.3842 	42.8043 	-1.32982 	0
0.0605638 	-76.3824 	42.8053 	-1.31389 	0
0.0611352 	-76.3807 	42.8063 	-1.29796 	0
0.0617065 	-76.3789 	42.8073 	-1.28203 	0
0.0622779 	-76.3772 	42.8083 	-1.26609 	0
0.0628492 	-76.3754 	42.8093 	-1.25016 	0
0.0634206 	-76.3787 	42.8105 	-1.23475 	0
0.063992 	-76.39 	42.812 	-1.22017 	0
0.0645633 	-76.4013 	42.8135 	-1.2056 	0
0.0651347 	-76.4125 	42.8151 	-1.19102 	0
0.065706 	-76.4119 	42.8163 	-1.17639 	0
0.0662774 	-76.4061 	42.8174 	-1.16174 	0
0.0668487 	-76.4002 	42.8186 	-1.14709 	0
0.0674201 	-76.3943 	42.8197 	-1.13244 	0
0.0679915 	-76.3885 	42.8208 	-1.11779 	0
0.0685628 	-76.3826 	42.822 	-1.10314 	0
0.0691342 	-76.3768 	42.8231 	-1.08848 	0
0.0697055 	-76.3715 	42.8243 	-1.07386 	0
0.0702769 	-76.378 	42.826 	-1.05987 	0
0.0708482 	-76.3844 	42.8278 	-1.04588 	0
0.0714196 	-76.3909 	42.8295 	-1.03189 	0
0.071991 	-76.3855 	42.831 	-1.01786 	0
0.0725623 	-76.3776 	42.8324 	-1.00382 	0
0.0731337 	-76.3697 	42.8338 	-0.989776 	0
0.073705 	-76.3619 	42.8352 	-0.975734 	0
0.0742764 	-76.354 	42.8366 	-0.961693 	0
0.0748477 	-76.3461 	42.838 	-0.947651 	0
0.0754191 	-76.34 	42.8395 	-0.933729 	0
0.0759905 	-76.3434 	42.8416 	-0.920456 	0
0.0765618 	-76.3468 	42.8436 	-0.907182 	0
0.0771332 	-76.3461 	42.8455 	-0.893897 	0
0.0777045 	-76.3376 	42.8473 	-0.880588 	0
0.0782759 	-76.3292 	42.8491 	-0.867279 	0
0.0788472 	-76.3207 	42.8508 	-0.85397 	0
0.0794186 	-76.3122 	42.8526 	-0.840661 	0
0.0799899 	-76.3038 	42.8543 	-0.827352 	0
0.0805613 	-76.3007 	42.8564 	-0.814333 	0
0.0811327 	-76.3024 	42.8589 	-0.801574 	0
0.081704 	-76.3032 	42.8613 	-0.788812 	0
0.0822754 	-76.295 	42.8636 	-0.776026 	0
0.0828467 	-76.2867 	42.8658 	-0.763241 	0
0.0834181 	-76.2784 	42.868 	-0.750455 	0
0.0839894 	-76.2701 	42.8702 	-0.73767 	0
0.0845608 	-76.2619 	42.8724 	-0.724885 	0
0.0851322 	-76.2625 	42.8754 	-0.712518 	0
0.0857035 	-76.2632 	42.8784 	-0.700151 	0
0.0862749 	-76.2564 	42.8813 	-0.687767 	0
0.0868462 	-76.2486 	42.8841 	-0.675381 	0
0.0874176 	-76.2408 	42.8869 	-0.662995 	0
0.0879889 	-76.2329 	42.8897 	-0.650608 	0
0.0885603 	-76.2286 	42.8929 	-0.638357 	0
0.0891317 	-76.2287 	42.8967 	-0.626278 	0
0.089703 	-76.2245 	42.9003 	-0.614191 	0
0.0902744 	-76.2174 	42.9039 	-0.602098 	0
0.0908457 	-76.2102 	42.9075 	-0.590004 	0
0.0914171 	-76.203 	42.911 	-0.577911 	0
0.0919884 	-76.2007 	42.9154 	-0.56599 	0
0.0925598 	-76.1999 	42.9201 	-0.554138 	0
0.0931312 	-76.1934 	42.9246 	-0.542274 	0
0.0937025 	-76.1868 	42.9292 	-0.530411 	0
0.0942739 	-76.1803 	42.9337 	-0.518548 	0
0.0948452 	-76.1781 	42.9393 	-0.506817 	0
0.0954166 	-76.176 	42.9452 	-0.495134 	0
0.0959879 	-76.1702 	42.9509 	-0.483446 	0
0.0965593 	-76.1643 	42.9567 	-0.471757 	0
0.0971307 	-76.1603 	42.9631 	-0.460122 	0
0.097702 	-76.1592 	42.9705 	-0.448581 	0
0.0982734 	-76.1539 	42.9779 	-0.437034 	0
0.0988447 	-76.1487 	42.9852 	-0.425486 	0
0.0994161 	-76.1461 	42.9936 	-0.414005 	0
0.0999874 	-76.1435 	43.0029 	-0.402571 	0
0.100559 	-76.1388 	43.0121 	-0.391133 	0
0.10113 	-76.1351 	43.0219 	-0.379721 	0
0.101702 	-76.1334 	43.0334 	-0.368381 	0
0.102273 	-76.1292 	43.0448 	-0.357038 	0
0.102844 	-76.1263 	43.0572 	-0.345724 	0
0.103416 	-76.1241 	43.0712 	-0.334458 	0
0.103987 	-76.1203 	43.0852 	-0.32319 	0
0.104558 	-76.119 	43.1017 	-0.311974 	0
0.10513 	-76.1156 	43.1185 	-0.300765 	0
0.105701 	-76.1141 	43.1374 	-0.289606 	0
0.106272 	-76.1111 	43.1573 	-0.278472 	0
0.106844 	-76.1096 	43.1796 	-0.267346 	0
0.107415 	-76.1069 	43.2031 	-0.256221 	0
0.107986 	-76.1053 	43.2302 	-0.245194 	0
0.108558 	-76.1037 	43.2529 	-0.234261 	0
0.109129 	-76.101 	43.2157 	-0.222629 	0
0.109701 	-76.0956 	42.9327 	-0.207374 	0
0.110272 	-76.0913 	41.9407 	-0.180413 	0
0.110843 	-76.093 	40.1405 	-0.142687 	0
0.111415 	-76.0969 	37.918 	-0.105104 	0
0.111986 	-76.1078 	35.4452 	-0.0716011 	0
0.112557 	-76.1263 	32.5945 	-0.0428485 	0
0.113129 	-76.1522 	28.3806 	-0.0181065 	0
0.1137 	-76.1736 	1.25839e-10 	-4.55454e-15 	0
