0.0131412 	-169.466 	20.9301 	-0.0188684 	0
0.0137126 	-169.444 	25.1675 	-0.0428315 	0
0.0142839 	-169.373 	28.3079 	-0.0575286 	0
0.0148553 	-169.268 	31.2553 	-0.0622072 	0
0.0154266 	-169.133 	33.6283 	-0.0640434 	0
0.015998 	-168.974 	34.9837 	-0.0766725 	0
0.0165693 	-168.801 	35.8494 	-0.0924689 	0
0.0171407 	-168.606 	36.5589 	-0.108114 	0
0.0177121 	-168.394 	37.1849 	-0.123157 	0
0.0182834 	-168.173 	37.752 	-0.137558 	0
0.0188548 	-167.927 	38.2598 	-0.151626 	0
0.0194261 	-167.655 	38.7221 	-0.165304 	0
0.0199975 	-167.402 	39.1655 	-0.17821 	0
0.0205688 	-167.097 	39.5567 	-0.190894 	0
0.0211402 	-166.819 	39.9427 	-0.202954 	0
0.0217116 	-166.492 	40.287 	-0.214713 	0
0.0222829 	-166.201 	40.6325 	-0.225984 	0
0.0228543 	-165.853 	40.9386 	-0.23679 	0
0.0234256 	-165.532 	41.2429 	-0.24725 	0
0.023997 	-165.196 	41.5322 	-0.257346 	0
0.0245683 	-164.83 	41.7999 	-0.267043 	0
0.0251397 	-164.5 	42.0687 	-0.276471 	0
0.0257111 	-164.141 	42.3205 	-0.285456 	0
0.0262824 	-163.758 	42.5569 	-0.294038 	0
0.0268538 	-163.409 	42.7943 	-0.302439 	0
0.0274251 	-163.051 	43.0256 	-0.310655 	0
0.0279965 	-162.656 	43.2336 	-0.31818 	0
0.0285678 	-162.275 	43.442 	-0.325662 	0
0.0291392 	-161.913 	43.651 	-0.333088 	0
0.0297106 	-161.534 	43.8385 	-0.339949 	0
0.0302819 	-161.129 	43.995 	-0.346 	0
0.0308533 	-160.736 	44.152 	-0.352048 	0
0.0314246 	-160.361 	44.3097 	-0.358094 	0
0.031996 	-159.985 	44.4616 	-0.364038 	0
0.0325673 	-159.58 	44.5125 	-0.36821 	0
0.0331387 	-159.176 	44.5634 	-0.372382 	0
0.0337101 	-158.791 	44.615 	-0.376632 	0
0.0342814 	-158.413 	44.667 	-0.38091 	0
0.0348528 	-158.035 	44.7151 	-0.385094 	0
0.0354241 	-157.644 	44.7039 	-0.387841 	0
0.0359955 	-157.253 	44.6928 	-0.390587 	0
0.0365668 	-156.871 	44.6819 	-0.393402 	0
0.0371382 	-156.504 	44.6714 	-0.396318 	0
0.0377095 	-156.136 	44.6609 	-0.399235 	0
0.0382809 	-155.767 	44.6507 	-0.401771 	0
0.0388523 	-155.394 	44.6412 	-0.403553 	0
0.0394236 	-155.02 	44.6317 	-0.405334 	0
0.039995 	-154.653 	44.6223 	-0.407171 	0
0.0405663 	-154.3 	44.6132 	-0.409146 	0
0.0411377 	-153.947 	44.6041 	-0.411121 	0
0.041709 	-153.594 	44.595 	-0.413095 	0
0.0422804 	-153.242 	44.5863 	-0.414228 	0
0.0428518 	-152.89 	44.5777 	-0.41511 	0
0.0434231 	-152.538 	44.5691 	-0.415993 	0
0.0439945 	-152.191 	44.5606 	-0.416933 	0
0.0445658 	-151.856 	44.5524 	-0.418023 	0
0.0451372 	-151.521 	44.5442 	-0.419113 	0
0.0457085 	-151.187 	44.536 	-0.420204 	0
0.0462799 	-150.854 	44.5279 	-0.421024 	0
0.0468513 	-150.528 	44.5203 	-0.421016 	0
0.0474226 	-150.202 	44.5127 	-0.421008 	0
0.047994 	-149.876 	44.505 	-0.420999 	0
0.0485653 	-149.553 	44.4975 	-0.421043 	0
0.0491367 	-149.241 	44.4902 	-0.421253 	0
0.049708 	-148.93 	44.4829 	-0.421463 	0
0.0502794 	-148.618 	44.4756 	-0.421673 	0
0.0508508 	-148.306 	44.4683 	-0.421883 	0
0.0514221 	-148.004 	44.4614 	-0.421449 	0
0.0519935 	-147.707 	44.4548 	-0.420617 	0
0.0525648 	-147.411 	44.4482 	-0.419784 	0
0.0531362 	-147.115 	44.4416 	-0.418952 	0
0.0537075 	-146.819 	44.435 	-0.418125 	0
0.0542789 	-146.534 	44.4286 	-0.417515 	0
0.0548503 	-146.25 	44.4223 	-0.416905 	0
0.0554216 	-145.965 	44.4159 	-0.416294 	0
0.055993 	-145.68 	44.4096 	-0.415684 	0
0.0565643 	-145.396 	44.4032 	-0.415074 	0
0.0571357 	-145.132 	44.3976 	-0.413785 	0
0.057707 	-144.876 	44.3922 	-0.412239 	0
0.0582784 	-144.62 	44.3869 	-0.410694 	0
0.0588497 	-144.364 	44.3815 	-0.409148 	0
0.0594211 	-144.108 	44.3761 	-0.407603 	0
0.0599925 	-143.856 	44.3708 	-0.406156 	0
0.0605638 	-143.609 	44.3657 	-0.404827 	0
0.0611352 	-143.362 	44.3605 	-0.403498 	0
0.0617065 	-143.115 	44.3554 	-0.402169 	0
0.0622779 	-142.868 	44.3502 	-0.40084 	0
0.0628492 	-142.621 	44.345 	-0.399511 	0
0.0634206 	-142.384 	44.3402 	-0.397866 	0
0.063992 	-142.161 	44.3359 	-0.39572 	0
0.0645633 	-141.939 	44.3317 	-0.393573 	0
0.0651347 	-141.717 	44.3274 	-0.391426 	0
0.065706 	-141.494 	44.3231 	-0.38928 	0
0.0662774 	-141.273 	44.3189 	-0.387158 	0
0.0668487 	-141.058 	44.3148 	-0.385224 	0
0.0674201 	-140.843 	44.3107 	-0.383289 	0
0.0679915 	-140.627 	44.3066 	-0.381355 	0
0.0685628 	-140.412 	44.3025 	-0.37942 	0
0.0691342 	-140.197 	44.2984 	-0.377486 	0
0.0697055 	-139.982 	44.2943 	-0.375518 	0
0.0702769 	-139.786 	44.291 	-0.372857 	0
0.0708482 	-139.59 	44.2877 	-0.370196 	0
0.0714196 	-139.394 	44.2844 	-0.367534 	0
0.071991 	-139.197 	44.2811 	-0.364873 	0
0.0725623 	-139.004 	44.2779 	-0.362308 	0
0.0731337 	-138.813 	44.2747 	-0.359858 	0
0.073705 	-138.622 	44.2716 	-0.357409 	0
0.0742764 	-138.432 	44.2684 	-0.35496 	0
0.0748477 	-138.241 	44.2653 	-0.352511 	0
0.0754191 	-138.054 	44.2622 	-0.349978 	0
0.0759905 	-137.885 	44.26 	-0.346995 	0
0.0765618 	-137.716 	44.2577 	-0.344011 	0
0.0771332 	-137.546 	44.2554 	-0.341028 	0
0.0777045 	-137.378 	44.2532 	-0.338074 	0
0.0782759 	-137.213 	44.251 	-0.335296 	0
0.0788472 	-137.049 	44.2488 	-0.332519 	0
0.0794186 	-136.884 	44.2467 	-0.329741 	0
0.0799899 	-136.719 	44.2445 	-0.326963 	0
0.0805613 	-136.564 	44.2428 	-0.323956 	0
0.0811327 	-136.418 	44.2415 	-0.320742 	0
0.081704 	-136.272 	44.2402 	-0.317528 	0
0.0822754 	-136.126 	44.2389 	-0.314321 	0
0.0828467 	-135.983 	44.2377 	-0.311309 	0
0.0834181 	-135.841 	44.2365 	-0.308296 	0
0.0839894 	-135.698 	44.2353 	-0.305284 	0
0.0845608 	-135.556 	44.2341 	-0.30227 	0
0.0851322 	-135.429 	44.2339 	-0.298892 	0
0.0857035 	-135.302 	44.2336 	-0.295513 	0
0.0862749 	-135.175 	44.2334 	-0.292135 	0
0.0868462 	-135.052 	44.2332 	-0.288944 	0
0.0874176 	-134.928 	44.233 	-0.285762 	0
0.0879889 	-134.805 	44.2328 	-0.28258 	0
0.0885603 	-134.687 	44.233 	-0.279259 	0
0.0891317 	-134.577 	44.2339 	-0.275761 	0
0.089703 	-134.467 	44.2347 	-0.272262 	0
0.0902744 	-134.359 	44.2356 	-0.268915 	0
0.0908457 	-134.252 	44.2365 	-0.26561 	0
0.0914171 	-134.144 	44.2373 	-0.262305 	0
0.0919884 	-134.045 	44.2391 	-0.258799 	0
0.0925598 	-133.95 	44.2411 	-0.255213 	0
0.0931312 	-133.855 	44.2432 	-0.251702 	0
0.0937025 	-133.761 	44.2453 	-0.248307 	0
0.0942739 	-133.668 	44.2475 	-0.244911 	0
0.0948452 	-133.582 	44.2506 	-0.241333 	0
0.0954166 	-133.498 	44.254 	-0.237684 	0
0.0959879 	-133.416 	44.2576 	-0.234166 	0
0.0965593 	-133.335 	44.2611 	-0.230705 	0
0.0971307 	-133.257 	44.2652 	-0.227159 	0
0.097702 	-133.184 	44.2703 	-0.223464 	0
0.0982734 	-133.113 	44.2755 	-0.21988 	0
0.0988447 	-133.042 	44.2807 	-0.216372 	0
0.0994161 	-132.975 	44.287 	-0.21274 	0
0.0999874 	-132.911 	44.2941 	-0.209017 	0
0.100559 	-132.85 	44.3012 	-0.205476 	0
0.10113 	-132.789 	44.3088 	-0.201882 	0
0.101702 	-132.734 	44.3182 	-0.198133 	0
0.102273 	-132.68 	44.3275 	-0.194552 	0
0.102844 	-132.627 	44.3378 	-0.190916 	0
0.103416 	-132.579 	44.3497 	-0.187188 	0
0.103987 	-132.532 	44.3616 	-0.183609 	0
0.104558 	-132.488 	44.3758 	-0.17987 	0
0.10513 	-132.447 	44.3905 	-0.176249 	0
0.105701 	-132.408 	44.4072 	-0.172544 	0
0.106272 	-132.371 	44.4249 	-0.168907 	0
0.106844 	-132.338 	44.4449 	-0.165185 	0
0.107415 	-132.306 	44.466 	-0.161574 	0
0.107986 	-132.278 	44.4901 	-0.157871 	0
0.108558 	-132.251 	44.5163 	-0.154184 	0
0.109129 	-132.227 	44.5447 	-0.150537 	0
0.109701 	-132.206 	44.5762 	-0.146876 	0
0.110272 	-132.187 	44.6091 	-0.143284 	0
0.110843 	-132.17 	44.5645 	-0.139031 	0
0.111415 	-132.153 	43.8186 	-0.125201 	0
0.111986 	-132.151 	41.0281 	-0.0841321 	0
0.112557 	-132.16 	37.1513 	-0.0458263 	0
0.113129 	-132.182 	32.0263 	-0.0179462 	0
0.1137 	-132.202 	1.43768e-10 	-4.64787e-15 	0
