0 	-41.2302 	0 	0 	0
0.000571357 	-41.6604 	0.0106904 	-0.116797 	0
0.00114271 	-42.3425 	0.706571 	-0.25496 	0
0.00171407 	-42.9704 	1.37544 	-0.394551 	0
0.00228543 	-43.4979 	2.07111 	-0.534165 	0
0.00285678 	-43.9271 	2.81696 	-0.673579 	0
0.00342814 	-44.2689 	3.62821 	-0.812128 	0
0.0039995 	-44.5432 	4.51549 	-0.949864 	0
0.00457085 	-44.7658 	5.48788 	-1.08668 	0
0.00514221 	-44.9524 	6.55012 	-1.22167 	0
0.00571357 	-45.1179 	7.70832 	-1.35519 	0
0.00628492 	-45.222 	8.96861 	-1.48661 	0
0.00685628 	-45.2007 	10.3729 	-1.61515 	0
0.00742764 	-45.1992 	11.9523 	-1.74063 	0
0.00799899 	-45.2826 	13.6711 	-1.85987 	0
0.00857035 	-45.4026 	15.496 	-1.97615 	0
0.00914171 	-45.5674 	17.4042 	-2.08585 	0
0.00971307 	-45.7649 	19.3722 	-2.19227 	0
0.0102844 	-46.0332 	21.3321 	-2.29015 	0
0.0108558 	-46.3519 	23.2385 	-2.38018 	0
0.0114271 	-46.6766 	25.0997 	-2.46309 	0
0.0119985 	-47.0057 	26.9801 	-2.53805 	0
0.0125698 	-47.2859 	28.6016 	-2.59456 	0
0.0131412 	-47.731 	31.0923 	-2.66265 	0
0.0137126 	-48.2116 	33.4542 	-2.71045 	0
0.0142839 	-48.7362 	34.7945 	-2.72857 	0
0.0148553 	-49.2461 	35.3415 	-2.72919 	0
0.0154266 	-49.7498 	35.8044 	-2.72396 	0
0.015998 	-50.2529 	36.2175 	-2.71626 	0
0.0165693 	-50.7384 	36.6315 	-2.70859 	0
0.0171407 	-51.2224 	37.0203 	-2.69944 	0
0.0177121 	-51.7057 	37.3866 	-2.68924 	0
0.0182834 	-52.1516 	37.7392 	-2.6775 	0
0.0188548 	-52.5995 	38.0709 	-2.66497 	0
0.0194261 	-53.0743 	38.3865 	-2.65278 	0
0.0199975 	-53.4769 	38.698 	-2.63858 	0
0.0205688 	-53.9361 	38.9866 	-2.62536 	0
0.0211402 	-54.3338 	39.2746 	-2.61056 	0
0.0217116 	-54.7761 	39.5423 	-2.59664 	0
0.0222829 	-55.1387 	39.812 	-2.58077 	0
0.0228543 	-55.5969 	40.0601 	-2.56709 	0
0.0234256 	-55.9395 	40.309 	-2.55072 	0
0.023997 	-56.3341 	40.5469 	-2.53549 	0
0.0245683 	-56.7244 	40.771 	-2.5202 	0
0.0251397 	-57.0454 	40.9967 	-2.50343 	0
0.0257111 	-57.4299 	41.2021 	-2.48761 	0
0.0262824 	-57.7983 	41.3921 	-2.47124 	0
0.0268538 	-58.095 	41.585 	-2.45352 	0
0.0274251 	-58.4161 	41.7646 	-2.43587 	0
0.0279965 	-58.8222 	41.8939 	-2.41843 	0
0.0285678 	-59.0928 	42.0319 	-2.39873 	0
0.0291392 	-59.3634 	42.17 	-2.37903 	0
0.0297106 	-59.6774 	42.2725 	-2.35879 	0
0.0302819 	-60.0436 	42.3247 	-2.33762 	0
0.0308533 	-60.2843 	42.3842 	-2.31437 	0
0.0314246 	-60.525 	42.4436 	-2.29113 	0
0.031996 	-60.7708 	42.4996 	-2.2679 	0
0.0325673 	-61.1057 	42.4946 	-2.24496 	0
0.0331387 	-61.3741 	42.49 	-2.22077 	0
0.0337101 	-61.5823 	42.4859 	-2.19544 	0
0.0342814 	-61.7905 	42.4817 	-2.17011 	0
0.0348528 	-62.0037 	42.4777 	-2.14501 	0
0.0354241 	-62.2957 	42.476 	-2.12356 	0
0.0359955 	-62.5519 	42.4732 	-2.10141 	0
0.0365668 	-62.7275 	42.468 	-2.07767 	0
0.0371382 	-62.903 	42.4628 	-2.05394 	0
0.0377095 	-63.0786 	42.4575 	-2.03021 	0
0.0382809 	-63.2794 	42.4572 	-2.00778 	0
0.0388523 	-63.5302 	42.4666 	-1.98793 	0
0.0394236 	-63.7467 	42.4752 	-1.96748 	0
0.039995 	-63.8914 	42.4818 	-1.94576 	0
0.0405663 	-64.0362 	42.4885 	-1.92403 	0
0.0411377 	-64.181 	42.4952 	-1.90231 	0
0.041709 	-64.3258 	42.5018 	-1.88059 	0
0.0422804 	-64.5222 	42.5071 	-1.86106 	0
0.0428518 	-64.7339 	42.512 	-1.84217 	0
0.0434231 	-64.9015 	42.5159 	-1.82259 	0
0.0439945 	-65.0184 	42.5187 	-1.80219 	0
0.0445658 	-65.1353 	42.5216 	-1.78179 	0
0.0451372 	-65.2521 	42.5244 	-1.7614 	0
0.0457085 	-65.369 	42.5272 	-1.741 	0
0.0462799 	-65.5001 	42.5305 	-1.72128 	0
0.0468513 	-65.6746 	42.5352 	-1.70363 	0
0.0474226 	-65.849 	42.54 	-1.68598 	0
0.047994 	-65.9734 	42.5436 	-1.6676 	0
0.0485653 	-66.0648 	42.5464 	-1.64873 	0
0.0491367 	-66.1561 	42.5492 	-1.62985 	0
0.049708 	-66.2474 	42.5521 	-1.61098 	0
0.0502794 	-66.3388 	42.5549 	-1.59211 	0
0.0508508 	-66.4301 	42.5577 	-1.57324 	0
0.0514221 	-66.5518 	42.5613 	-1.55587 	0
0.0519935 	-66.6923 	42.5655 	-1.53943 	0
0.0525648 	-66.8327 	42.5696 	-1.52299 	0
0.0531362 	-66.9313 	42.5727 	-1.50599 	0
0.0537075 	-67.0006 	42.5752 	-1.48859 	0
0.0542789 	-67.0698 	42.5777 	-1.4712 	0
0.0548503 	-67.1391 	42.5801 	-1.45381 	0
0.0554216 	-67.2083 	42.5826 	-1.43641 	0
0.055993 	-67.2776 	42.5851 	-1.41902 	0
0.0565643 	-67.3468 	42.5875 	-1.40162 	0
0.0571357 	-67.4437 	42.5908 	-1.38609 	0
0.057707 	-67.551 	42.5943 	-1.37126 	0
0.0582784 	-67.6583 	42.5978 	-1.35643 	0
0.0588497 	-67.7512 	42.601 	-1.34142 	0
0.0594211 	-67.8014 	42.6032 	-1.32585 	0
0.0599925 	-67.8517 	42.6054 	-1.31028 	0
0.0605638 	-67.9019 	42.6076 	-1.29471 	0
0.0611352 	-67.9521 	42.6098 	-1.27915 	0
0.0617065 	-68.0023 	42.612 	-1.26358 	0
0.0622779 	-68.0525 	42.6143 	-1.24801 	0
0.0628492 	-68.1027 	42.6165 	-1.23245 	0
0.0634206 	-68.1658 	42.6191 	-1.21755 	0
0.063992 	-68.2493 	42.6223 	-1.20374 	0
0.0645633 	-68.3328 	42.6255 	-1.18992 	0
0.0651347 	-68.4164 	42.6287 	-1.17611 	0
0.065706 	-68.4581 	42.6309 	-1.16177 	0
0.0662774 	-68.4958 	42.6331 	-1.14739 	0
0.0668487 	-68.5335 	42.6352 	-1.13301 	0
0.0674201 	-68.5713 	42.6374 	-1.11862 	0
0.0679915 	-68.609 	42.6395 	-1.10424 	0
0.0685628 	-68.6467 	42.6417 	-1.08986 	0
0.0691342 	-68.6844 	42.6438 	-1.07547 	0
0.0697055 	-68.7235 	42.646 	-1.06113 	0
0.0702769 	-68.7912 	42.6492 	-1.04771 	0
0.0708482 	-68.859 	42.6524 	-1.03429 	0
0.0714196 	-68.9261 	42.6556 	-1.02086 	0
0.071991 	-68.9555 	42.6579 	-1.007 	0
0.0725623 	-68.9849 	42.6601 	-0.993143 	0
0.0731337 	-69.0143 	42.6624 	-0.979284 	0
0.073705 	-69.0437 	42.6647 	-0.965425 	0
0.0742764 	-69.0731 	42.667 	-0.951566 	0
0.0748477 	-69.1026 	42.6693 	-0.937707 	0
0.0754191 	-69.1359 	42.6717 	-0.92401 	0
0.0759905 	-69.1905 	42.675 	-0.911195 	0
0.0765618 	-69.2451 	42.6782 	-0.898381 	0
0.0771332 	-69.2832 	42.6811 	-0.885384 	0
0.0777045 	-69.3058 	42.6836 	-0.872212 	0
0.0782759 	-69.3283 	42.686 	-0.85904 	0
0.0788472 	-69.3509 	42.6885 	-0.845868 	0
0.0794186 	-69.3734 	42.691 	-0.832696 	0
0.0799899 	-69.396 	42.6935 	-0.819524 	0
0.0805613 	-69.4303 	42.6965 	-0.806772 	0
0.0811327 	-69.4753 	42.7 	-0.794397 	0
0.081704 	-69.5142 	42.7034 	-0.781955 	0
0.0822754 	-69.532 	42.7062 	-0.769276 	0
0.0828467 	-69.5499 	42.709 	-0.756597 	0
0.0834181 	-69.5677 	42.7119 	-0.743918 	0
0.0839894 	-69.5856 	42.7147 	-0.73124 	0
0.0845608 	-69.6034 	42.7175 	-0.718562 	0
0.0851322 	-69.641 	42.7214 	-0.706529 	0
0.0857035 	-69.6786 	42.7253 	-0.694496 	0
0.0862749 	-69.6932 	42.7287 	-0.682199 	0
0.0868462 	-69.7076 	42.732 	-0.669899 	0
0.0874176 	-69.7221 	42.7354 	-0.657599 	0
0.0879889 	-69.7365 	42.7387 	-0.6453 	0
0.0885603 	-69.7586 	42.7426 	-0.633227 	0
0.0891317 	-69.7904 	42.7471 	-0.621446 	0
0.089703 	-69.8086 	42.7513 	-0.609501 	0
0.0902744 	-69.8205 	42.7553 	-0.59748 	0
0.0908457 	-69.8325 	42.7594 	-0.585459 	0
0.0914171 	-69.8444 	42.7634 	-0.573438 	0
0.0919884 	-69.8672 	42.7684 	-0.561732 	0
0.0925598 	-69.8913 	42.7737 	-0.550112 	0
0.0931312 	-69.9013 	42.7787 	-0.538311 	0
0.0937025 	-69.9113 	42.7837 	-0.526511 	0
0.0942739 	-69.9213 	42.7886 	-0.51471 	0
0.0948452 	-69.941 	42.7947 	-0.503179 	0
0.0954166 	-69.9588 	42.8011 	-0.491672 	0
0.0959879 	-69.9673 	42.8073 	-0.480039 	0
0.0965593 	-69.9758 	42.8134 	-0.468405 	0
0.0971307 	-69.9886 	42.8203 	-0.456892 	0
0.097702 	-70.0064 	42.8282 	-0.445553 	0
0.0982734 	-70.0137 	42.8359 	-0.434056 	0
0.0988447 	-70.021 	42.8435 	-0.422558 	0
0.0994161 	-70.0342 	42.8524 	-0.411228 	0
0.0999874 	-70.0457 	42.8621 	-0.399922 	0
0.100559 	-70.052 	42.8716 	-0.388531 	0
0.10113 	-70.0607 	42.8818 	-0.377208 	0
0.101702 	-70.0726 	42.8937 	-0.366024 	0
0.102273 	-70.0781 	42.9054 	-0.354724 	0
0.102844 	-70.0866 	42.9181 	-0.343515 	0
0.103416 	-70.0951 	42.9325 	-0.332363 	0
0.103987 	-70.1 	42.9468 	-0.321137 	0
0.104558 	-70.1096 	42.9637 	-0.310076 	0
0.10513 	-70.1139 	42.9808 	-0.298904 	0
0.105701 	-70.122 	43 	-0.287881 	0
0.106272 	-70.1257 	43.0202 	-0.276783 	0
0.106844 	-70.1324 	43.043 	-0.265793 	0
0.107415 	-70.136 	43.0667 	-0.25473 	0
0.107986 	-70.1411 	43.0942 	-0.243828 	0
0.108558 	-70.1454 	43.1075 	-0.232973 	0
0.109129 	-70.1476 	43.0202 	-0.220596 	0
0.109701 	-70.1465 	42.6373 	-0.203514 	0
0.110272 	-70.1471 	41.5185 	-0.174605 	0
0.110843 	-70.1533 	39.6811 	-0.137281 	0
0.111415 	-70.161 	37.4862 	-0.100898 	0
0.111986 	-70.1741 	35.0701 	-0.0687495 	0
0.112557 	-70.1941 	32.2731 	-0.0411243 	0
0.113129 	-70.2202 	28.1094 	-0.0173149 	0
0.1137 	-70.2408 	1.19006e-10 	-4.15088e-15 	0
