0 	-186.349 	0 	0 	0
0.000571357 	-186.333 	-7.11517 	0.02513 	0
0.00114271 	-186.344 	-6.73336 	0.0339463 	0
0.00171407 	-186.39 	-6.23076 	0.0372022 	0
0.00228543 	-186.465 	-5.67447 	0.0345512 	0
0.00285678 	-186.56 	-5.07532 	0.0273354 	0
0.00342814 	-186.673 	-4.42792 	0.0131414 	0
0.0039995 	-186.793 	-3.73171 	-0.00742439 	0
0.00457085 	-186.916 	-2.98047 	-0.0358744 	0
0.00514221 	-187.03 	-2.16352 	-0.0742799 	0
0.00571357 	-187.124 	-1.27402 	-0.123262 	0
0.00628492 	-187.185 	-0.302974 	-0.183709 	0
0.00685628 	-187.194 	0.763098 	-0.256611 	0
0.00742764 	-187.129 	1.95863 	-0.343971 	0
0.00799899 	-186.956 	3.41141 	-0.45331 	0
0.00857035 	-186.687 	5.12528 	-0.581262 	0
0.00914171 	-186.356 	7.11858 	-0.725333 	0
0.00971307 	-186.04 	9.25839 	-0.878251 	0
0.0102844 	-185.77 	11.4727 	-1.03818 	0
0.0108558 	-185.409 	13.718 	-1.19893 	0
0.0114271 	-184.798 	16.0783 	-1.35457 	0
0.0119985 	-183.999 	18.6512 	-1.49726 	0
0.0125698 	-183.272 	20.9412 	-1.60143 	0
0.0131412 	-182.168 	24.4695 	-1.72186 	0
0.0137126 	-181.146 	27.7173 	-1.79919 	0
0.0142839 	-180.064 	31.0901 	-1.85764 	0
0.0148553 	-178.938 	34.1645 	-1.91493 	0
0.0154266 	-177.75 	36.0031 	-1.9615 	0
0.015998 	-176.534 	36.7787 	-1.97551 	0
0.0165693 	-175.321 	37.348 	-1.98145 	0
0.0171407 	-174.11 	37.8802 	-1.98564 	0
0.0177121 	-172.906 	38.3657 	-1.9874 	0
0.0182834 	-171.703 	38.8101 	-1.9876 	0
0.0188548 	-170.514 	39.2163 	-1.98581 	0
0.0194261 	-169.342 	39.5905 	-1.98221 	0
0.0199975 	-168.166 	39.9522 	-1.97887 	0
0.0205688 	-167.022 	40.2759 	-1.97305 	0
0.0211402 	-165.873 	40.596 	-1.96783 	0
0.0217116 	-164.758 	40.8852 	-1.96068 	0
0.0222829 	-163.631 	41.1753 	-1.95449 	0
0.0228543 	-162.551 	41.4353 	-1.94594 	0
0.0234256 	-161.459 	41.6942 	-1.93854 	0
0.023997 	-160.389 	41.9414 	-1.93028 	0
0.0245683 	-159.346 	42.1722 	-1.92127 	0
0.0251397 	-158.293 	42.4035 	-1.91304 	0
0.0257111 	-157.271 	42.6211 	-1.90381 	0
0.0262824 	-156.272 	42.8266 	-1.89402 	0
0.0268538 	-155.263 	43.0324 	-1.88501 	0
0.0274251 	-154.267 	43.2312 	-1.87563 	0
0.0279965 	-153.322 	43.4035 	-1.86484 	0
0.0285678 	-152.365 	43.5767 	-1.85491 	0
0.0291392 	-151.405 	43.7501 	-1.84517 	0
0.0297106 	-150.473 	43.8959 	-1.83399 	0
0.0302819 	-149.583 	44.0019 	-1.82072 	0
0.0308533 	-148.68 	44.1094 	-1.80831 	0
0.0314246 	-147.775 	44.2172 	-1.79607 	0
0.031996 	-146.874 	44.3196 	-1.78361 	0
0.0325673 	-146.058 	44.33 	-1.76704 	0
0.0331387 	-145.238 	44.3406 	-1.7507 	0
0.0337101 	-144.407 	44.3521 	-1.73511 	0
0.0342814 	-143.576 	44.3636 	-1.71953 	0
0.0348528 	-142.751 	44.3728 	-1.70385 	0
0.0354241 	-142.025 	44.3476 	-1.6868 	0
0.0359955 	-141.299 	44.3225 	-1.66974 	0
0.0365668 	-140.56 	44.2972 	-1.6535 	0
0.0371382 	-139.82 	44.2719 	-1.63729 	0
0.0377095 	-139.08 	44.2466 	-1.62108 	0
0.0382809 	-138.373 	44.225 	-1.60497 	0
0.0388523 	-137.733 	44.2107 	-1.58905 	0
0.0394236 	-137.092 	44.1964 	-1.57313 	0
0.039995 	-136.44 	44.1818 	-1.55788 	0
0.0405663 	-135.787 	44.1671 	-1.54267 	0
0.0411377 	-135.134 	44.1524 	-1.52746 	0
0.041709 	-134.481 	44.1378 	-1.51225 	0
0.0422804 	-133.902 	44.1246 	-1.49719 	0
0.0428518 	-133.345 	44.1118 	-1.48216 	0
0.0434231 	-132.788 	44.0991 	-1.46716 	0
0.0439945 	-132.22 	44.0861 	-1.45274 	0
0.0445658 	-131.651 	44.073 	-1.43832 	0
0.0451372 	-131.083 	44.06 	-1.4239 	0
0.0457085 	-130.515 	44.047 	-1.40949 	0
0.0462799 	-129.969 	44.0345 	-1.39514 	0
0.0468513 	-129.492 	44.0239 	-1.38099 	0
0.0474226 	-129.016 	44.0133 	-1.36685 	0
0.047994 	-128.538 	44.0026 	-1.35276 	0
0.0485653 	-128.051 	43.9918 	-1.33913 	0
0.0491367 	-127.565 	43.9809 	-1.32549 	0
0.049708 	-127.078 	43.97 	-1.31186 	0
0.0502794 	-126.591 	43.9591 	-1.29822 	0
0.0508508 	-126.105 	43.9483 	-1.28459 	0
0.0514221 	-125.671 	43.9388 	-1.2712 	0
0.0519935 	-125.271 	43.9301 	-1.25797 	0
0.0525648 	-124.87 	43.9215 	-1.24473 	0
0.0531362 	-124.47 	43.9129 	-1.2315 	0
0.0537075 	-124.061 	43.904 	-1.21869 	0
0.0542789 	-123.651 	43.8952 	-1.20587 	0
0.0548503 	-123.242 	43.8863 	-1.19306 	0
0.0554216 	-122.833 	43.8775 	-1.18024 	0
0.055993 	-122.424 	43.8686 	-1.16743 	0
0.0565643 	-122.015 	43.8598 	-1.15461 	0
0.0571357 	-121.669 	43.8525 	-1.14233 	0
0.057707 	-121.348 	43.846 	-1.13025 	0
0.0582784 	-121.026 	43.8394 	-1.11817 	0
0.0588497 	-120.705 	43.8328 	-1.10609 	0
0.0594211 	-120.379 	43.8261 	-1.0942 	0
0.0599925 	-120.051 	43.8193 	-1.08246 	0
0.0605638 	-119.722 	43.8126 	-1.07071 	0
0.0611352 	-119.393 	43.8058 	-1.05897 	0
0.0617065 	-119.065 	43.799 	-1.04722 	0
0.0622779 	-118.736 	43.7923 	-1.03547 	0
0.0628492 	-118.407 	43.7855 	-1.02373 	0
0.0634206 	-118.104 	43.7794 	-1.01213 	0
0.063992 	-117.842 	43.7745 	-1.00078 	0
0.0645633 	-117.58 	43.7695 	-0.989425 	0
0.0651347 	-117.317 	43.7646 	-0.978071 	0
0.065706 	-117.054 	43.7596 	-0.966786 	0
0.0662774 	-116.785 	43.7545 	-0.95571 	0
0.0668487 	-116.517 	43.7494 	-0.944634 	0
0.0674201 	-116.249 	43.7443 	-0.933559 	0
0.0679915 	-115.98 	43.7392 	-0.922483 	0
0.0685628 	-115.712 	43.7341 	-0.911407 	0
0.0691342 	-115.444 	43.729 	-0.900331 	0
0.0697055 	-115.178 	43.7239 	-0.889255 	0
0.0702769 	-114.957 	43.7203 	-0.878183 	0
0.0708482 	-114.736 	43.7166 	-0.86711 	0
0.0714196 	-114.516 	43.713 	-0.856038 	0
0.071991 	-114.293 	43.7092 	-0.845072 	0
0.0725623 	-114.067 	43.7055 	-0.834243 	0
0.0731337 	-113.841 	43.7017 	-0.823415 	0
0.073705 	-113.615 	43.6979 	-0.812586 	0
0.0742764 	-113.389 	43.6941 	-0.801757 	0
0.0748477 	-113.163 	43.6903 	-0.790928 	0
0.0754191 	-112.944 	43.6868 	-0.780129 	0
0.0759905 	-112.76 	43.6843 	-0.769489 	0
0.0765618 	-112.576 	43.6819 	-0.75885 	0
0.0771332 	-112.392 	43.6795 	-0.748212 	0
0.0777045 	-112.204 	43.6769 	-0.737787 	0
0.0782759 	-112.016 	43.6744 	-0.727362 	0
0.0788472 	-111.827 	43.6719 	-0.716938 	0
0.0794186 	-111.639 	43.6693 	-0.706513 	0
0.0799899 	-111.451 	43.6668 	-0.696088 	0
0.0805613 	-111.28 	43.6649 	-0.685713 	0
0.0811327 	-111.125 	43.6636 	-0.675385 	0
0.081704 	-110.97 	43.6622 	-0.665056 	0
0.0822754 	-110.812 	43.6609 	-0.654879 	0
0.0828467 	-110.653 	43.6595 	-0.644744 	0
0.0834181 	-110.494 	43.658 	-0.63461 	0
0.0839894 	-110.336 	43.6566 	-0.624475 	0
0.0845608 	-110.177 	43.6552 	-0.61434 	0
0.0851322 	-110.045 	43.655 	-0.604252 	0
0.0857035 	-109.912 	43.6548 	-0.594163 	0
0.0862749 	-109.778 	43.6545 	-0.584183 	0
0.0868462 	-109.643 	43.6543 	-0.574273 	0
0.0874176 	-109.508 	43.654 	-0.564364 	0
0.0879889 	-109.372 	43.6537 	-0.554454 	0
0.0885603 	-109.247 	43.6539 	-0.544544 	0
0.0891317 	-109.133 	43.6549 	-0.534632 	0
0.089703 	-109.019 	43.6558 	-0.524778 	0
0.0902744 	-108.902 	43.6566 	-0.515035 	0
0.0908457 	-108.786 	43.6575 	-0.505291 	0
0.0914171 	-108.67 	43.6584 	-0.495548 	0
0.0919884 	-108.567 	43.6602 	-0.485784 	0
0.0925598 	-108.469 	43.6625 	-0.476011 	0
0.0931312 	-108.368 	43.6646 	-0.466382 	0
0.0937025 	-108.268 	43.6668 	-0.45677 	0
0.0942739 	-108.167 	43.669 	-0.447158 	0
0.0948452 	-108.078 	43.6722 	-0.437509 	0
0.0954166 	-107.993 	43.6759 	-0.427864 	0
0.0959879 	-107.905 	43.6796 	-0.418354 	0
0.0965593 	-107.818 	43.6832 	-0.408844 	0
0.0971307 	-107.736 	43.6875 	-0.399309 	0
0.097702 	-107.661 	43.693 	-0.38973 	0
0.0982734 	-107.585 	43.6983 	-0.380297 	0
0.0988447 	-107.509 	43.7037 	-0.370868 	0
0.0994161 	-107.439 	43.7102 	-0.361395 	0
0.0999874 	-107.374 	43.7177 	-0.351942 	0
0.100559 	-107.307 	43.725 	-0.342582 	0
0.10113 	-107.243 	43.733 	-0.3332 	0
0.101702 	-107.185 	43.7428 	-0.323775 	0
0.102273 	-107.127 	43.7525 	-0.314467 	0
0.102844 	-107.071 	43.7632 	-0.305126 	0
0.103416 	-107.02 	43.7755 	-0.295792 	0
0.103987 	-106.968 	43.7879 	-0.286538 	0
0.104558 	-106.923 	43.8027 	-0.277202 	0
0.10513 	-106.877 	43.8179 	-0.267983 	0
0.105701 	-106.835 	43.8352 	-0.258695 	0
0.106272 	-106.795 	43.8535 	-0.2495 	0
0.106844 	-106.758 	43.8742 	-0.240273 	0
0.107415 	-106.722 	43.896 	-0.231136 	0
0.107986 	-106.69 	43.921 	-0.221899 	0
0.108558 	-106.66 	43.9482 	-0.212755 	0
0.109129 	-106.633 	43.9766 	-0.203686 	0
0.109701 	-106.607 	43.9791 	-0.194374 	0
0.110272 	-106.581 	43.7365 	-0.18204 	0
0.110843 	-106.558 	42.6207 	-0.155763 	0
0.111415 	-106.545 	40.4503 	-0.116163 	0
0.111986 	-106.542 	37.661 	-0.078171 	0
0.112557 	-106.552 	34.4686 	-0.0461595 	0
0.113129 	-106.573 	29.96 	-0.0195866 	0
0.1137 	-106.595 	1.30385e-10 	-5.01042e-15 	0
