0 	-194.534 	0 	0 	0
0.000571357 	-194.451 	-6.72959 	0.0679097 	0
0.00114271 	-194.351 	-6.43923 	0.120663 	0
0.00171407 	-194.297 	-6.00489 	0.165737 	0
0.00228543 	-194.289 	-5.51622 	0.203431 	0
0.00285678 	-194.321 	-4.98911 	0.234174 	0
0.00342814 	-194.384 	-4.42389 	0.256773 	0
0.0039995 	-194.471 	-3.8204 	0.270782 	0
0.00457085 	-194.572 	-3.17357 	0.274623 	0
0.00514221 	-194.676 	-2.47959 	0.26745 	0
0.00571357 	-194.77 	-1.7279 	0.247078 	0
0.00628492 	-194.837 	-0.909444 	0.212407 	0
0.00685628 	-194.86 	-0.00912985 	0.161905 	0
0.00742764 	-194.812 	0.995261 	0.0942751 	0
0.00799899 	-194.663 	2.18467 	0.00449971 	0
0.00857035 	-194.424 	3.63891 	-0.110449 	0
0.00914171 	-194.135 	5.44532 	-0.25611 	0
0.00971307 	-193.893 	7.45315 	-0.423497 	0
0.0102844 	-193.627 	9.57089 	-0.606142 	0
0.0108558 	-193.111 	11.8336 	-0.790497 	0
0.0114271 	-192.361 	14.3403 	-0.967367 	0
0.0119985 	-191.508 	17.1294 	-1.12558 	0
0.0125698 	-190.76 	19.6278 	-1.23924 	0
0.0131412 	-189.628 	23.5001 	-1.3652 	0
0.0137126 	-188.588 	27.041 	-1.43688 	0
0.0142839 	-187.496 	30.5817 	-1.48031 	0
0.0148553 	-186.396 	33.574 	-1.52483 	0
0.0154266 	-185.243 	35.6072 	-1.57497 	0
0.015998 	-184.035 	36.6154 	-1.60169 	0
0.0165693 	-182.825 	37.2481 	-1.61618 	0
0.0171407 	-181.616 	37.8058 	-1.62766 	0
0.0177121 	-180.409 	38.316 	-1.63696 	0
0.0182834 	-179.208 	38.7812 	-1.64422 	0
0.0188548 	-178.012 	39.2031 	-1.64923 	0
0.0194261 	-176.83 	39.5919 	-1.65301 	0
0.0199975 	-175.653 	39.9656 	-1.65613 	0
0.0205688 	-174.491 	40.2991 	-1.65702 	0
0.0211402 	-173.337 	40.6283 	-1.65809 	0
0.0217116 	-172.201 	40.9248 	-1.65732 	0
0.0222829 	-171.068 	41.2217 	-1.65691 	0
0.0228543 	-169.961 	41.4876 	-1.65477 	0
0.0234256 	-168.855 	41.7512 	-1.65244 	0
0.023997 	-167.768 	42.0033 	-1.65008 	0
0.0245683 	-166.699 	42.2379 	-1.64653 	0
0.0251397 	-165.629 	42.4725 	-1.64299 	0
0.0257111 	-164.584 	42.694 	-1.63932 	0
0.0262824 	-163.555 	42.9025 	-1.6346 	0
0.0268538 	-162.526 	43.111 	-1.62987 	0
0.0274251 	-161.509 	43.3135 	-1.62545 	0
0.0279965 	-160.526 	43.491 	-1.6197 	0
0.0285678 	-159.543 	43.6685 	-1.61395 	0
0.0291392 	-158.56 	43.846 	-1.60823 	0
0.0297106 	-157.6 	43.9983 	-1.60196 	0
0.0302819 	-156.668 	44.1127 	-1.59364 	0
0.0308533 	-155.736 	44.2271 	-1.58532 	0
0.0314246 	-154.804 	44.3414 	-1.577 	0
0.031996 	-153.877 	44.4516 	-1.56912 	0
0.0325673 	-153.016 	44.4675 	-1.55729 	0
0.0331387 	-152.155 	44.4834 	-1.54546 	0
0.0337101 	-151.294 	44.4994 	-1.53363 	0
0.0342814 	-150.434 	44.5153 	-1.5218 	0
0.0348528 	-149.577 	44.5296 	-1.51061 	0
0.0354241 	-148.807 	44.5045 	-1.49768 	0
0.0359955 	-148.036 	44.4793 	-1.48475 	0
0.0365668 	-147.265 	44.4542 	-1.47182 	0
0.0371382 	-146.495 	44.429 	-1.45889 	0
0.0377095 	-145.724 	44.4039 	-1.44616 	0
0.0382809 	-144.981 	44.382 	-1.4339 	0
0.0388523 	-144.297 	44.3664 	-1.42146 	0
0.0394236 	-143.614 	44.3507 	-1.40903 	0
0.039995 	-142.931 	44.335 	-1.39659 	0
0.0405663 	-142.247 	44.3194 	-1.38415 	0
0.0411377 	-141.564 	44.3037 	-1.37171 	0
0.041709 	-140.878 	44.288 	-1.35981 	0
0.0422804 	-140.26 	44.2737 	-1.34782 	0
0.0428518 	-139.662 	44.26 	-1.33576 	0
0.0434231 	-139.064 	44.2462 	-1.3237 	0
0.0439945 	-138.467 	44.2324 	-1.31165 	0
0.0445658 	-137.869 	44.2186 	-1.29959 	0
0.0451372 	-137.271 	44.2049 	-1.28753 	0
0.0457085 	-136.672 	44.191 	-1.27573 	0
0.0462799 	-136.092 	44.1777 	-1.2642 	0
0.0468513 	-135.578 	44.1661 	-1.25255 	0
0.0474226 	-135.063 	44.1546 	-1.24091 	0
0.047994 	-134.549 	44.143 	-1.22926 	0
0.0485653 	-134.035 	44.1314 	-1.21761 	0
0.0491367 	-133.521 	44.1199 	-1.20596 	0
0.049708 	-133.007 	44.1083 	-1.19431 	0
0.0502794 	-132.493 	44.0967 	-1.18267 	0
0.0508508 	-131.974 	44.085 	-1.1715 	0
0.0514221 	-131.508 	44.0747 	-1.16034 	0
0.0519935 	-131.074 	44.0652 	-1.14917 	0
0.0525648 	-130.64 	44.0558 	-1.13801 	0
0.0531362 	-130.206 	44.0463 	-1.12684 	0
0.0537075 	-129.771 	44.0368 	-1.11568 	0
0.0542789 	-129.337 	44.0273 	-1.10452 	0
0.0548503 	-128.903 	44.0179 	-1.09335 	0
0.0554216 	-128.469 	44.0084 	-1.08219 	0
0.055993 	-128.034 	43.9989 	-1.07115 	0
0.0565643 	-127.595 	43.9893 	-1.06039 	0
0.0571357 	-127.221 	43.9814 	-1.04988 	0
0.057707 	-126.871 	43.9741 	-1.03946 	0
0.0582784 	-126.521 	43.9668 	-1.02904 	0
0.0588497 	-126.171 	43.9595 	-1.01863 	0
0.0594211 	-125.821 	43.9522 	-1.00821 	0
0.0599925 	-125.471 	43.9449 	-0.997793 	0
0.0605638 	-125.121 	43.9376 	-0.987376 	0
0.0611352 	-124.771 	43.9303 	-0.97696 	0
0.0617065 	-124.421 	43.923 	-0.966543 	0
0.0622779 	-124.07 	43.9157 	-0.956195 	0
0.0628492 	-123.716 	43.9083 	-0.946102 	0
0.0634206 	-123.388 	43.9017 	-0.936057 	0
0.063992 	-123.102 	43.8961 	-0.926088 	0
0.0645633 	-122.815 	43.8905 	-0.916119 	0
0.0651347 	-122.529 	43.885 	-0.906149 	0
0.065706 	-122.242 	43.8794 	-0.89618 	0
0.0662774 	-121.955 	43.8739 	-0.886211 	0
0.0668487 	-121.669 	43.8683 	-0.876241 	0
0.0674201 	-121.382 	43.8628 	-0.866272 	0
0.0679915 	-121.095 	43.8572 	-0.856303 	0
0.0685628 	-120.809 	43.8517 	-0.846334 	0
0.0691342 	-120.519 	43.846 	-0.836601 	0
0.0697055 	-120.232 	43.8405 	-0.826895 	0
0.0702769 	-119.99 	43.8363 	-0.817037 	0
0.0708482 	-119.748 	43.8321 	-0.80718 	0
0.0714196 	-119.506 	43.828 	-0.797322 	0
0.071991 	-119.264 	43.8238 	-0.787464 	0
0.0725623 	-119.023 	43.8196 	-0.777607 	0
0.0731337 	-118.781 	43.8154 	-0.767749 	0
0.073705 	-118.539 	43.8113 	-0.757892 	0
0.0742764 	-118.297 	43.8071 	-0.748034 	0
0.0748477 	-118.053 	43.8029 	-0.738355 	0
0.0754191 	-117.815 	43.7988 	-0.728744 	0
0.0759905 	-117.613 	43.796 	-0.719175 	0
0.0765618 	-117.411 	43.7931 	-0.709607 	0
0.0771332 	-117.209 	43.7902 	-0.700038 	0
0.0777045 	-117.008 	43.7873 	-0.690469 	0
0.0782759 	-116.806 	43.7845 	-0.680901 	0
0.0788472 	-116.604 	43.7816 	-0.671332 	0
0.0794186 	-116.402 	43.7787 	-0.661764 	0
0.0799899 	-116.198 	43.7758 	-0.652389 	0
0.0805613 	-116.011 	43.7735 	-0.643031 	0
0.0811327 	-115.841 	43.7718 	-0.633673 	0
0.081704 	-115.671 	43.7701 	-0.624314 	0
0.0822754 	-115.5 	43.7684 	-0.614956 	0
0.0828467 	-115.33 	43.7667 	-0.605597 	0
0.0834181 	-115.159 	43.765 	-0.596239 	0
0.0839894 	-114.988 	43.7633 	-0.586922 	0
0.0845608 	-114.816 	43.7615 	-0.577755 	0
0.0851322 	-114.67 	43.761 	-0.568564 	0
0.0857035 	-114.525 	43.7605 	-0.559372 	0
0.0862749 	-114.38 	43.7599 	-0.550181 	0
0.0868462 	-114.234 	43.7594 	-0.540989 	0
0.0874176 	-114.089 	43.7588 	-0.531798 	0
0.0879889 	-113.943 	43.7582 	-0.522695 	0
0.0885603 	-113.805 	43.7582 	-0.513657 	0
0.0891317 	-113.68 	43.7588 	-0.504589 	0
0.089703 	-113.555 	43.7595 	-0.495522 	0
0.0902744 	-113.431 	43.7601 	-0.486454 	0
0.0908457 	-113.306 	43.7608 	-0.477386 	0
0.0914171 	-113.18 	43.7614 	-0.468425 	0
0.0919884 	-113.067 	43.763 	-0.459476 	0
0.0925598 	-112.959 	43.765 	-0.450509 	0
0.0931312 	-112.851 	43.7669 	-0.441541 	0
0.0937025 	-112.743 	43.7689 	-0.432573 	0
0.0942739 	-112.634 	43.7708 	-0.423689 	0
0.0948452 	-112.536 	43.7739 	-0.414823 	0
0.0954166 	-112.442 	43.7773 	-0.405933 	0
0.0959879 	-112.348 	43.7808 	-0.397043 	0
0.0965593 	-112.255 	43.7842 	-0.388163 	0
0.0971307 	-112.165 	43.7883 	-0.379394 	0
0.097702 	-112.083 	43.7935 	-0.370567 	0
0.0982734 	-112.001 	43.7987 	-0.36174 	0
0.0988447 	-111.919 	43.8039 	-0.35294 	0
0.0994161 	-111.843 	43.8103 	-0.344209 	0
0.0999874 	-111.771 	43.8175 	-0.335438 	0
0.100559 	-111.699 	43.8247 	-0.326666 	0
0.10113 	-111.63 	43.8325 	-0.317983 	0
0.101702 	-111.567 	43.842 	-0.309251 	0
0.102273 	-111.504 	43.8516 	-0.300519 	0
0.102844 	-111.443 	43.8621 	-0.291871 	0
0.103416 	-111.388 	43.8743 	-0.283187 	0
0.103987 	-111.332 	43.8864 	-0.274537 	0
0.104558 	-111.282 	43.901 	-0.265895 	0
0.10513 	-111.234 	43.9161 	-0.257233 	0
0.105701 	-111.188 	43.9332 	-0.248646 	0
0.106272 	-111.144 	43.9514 	-0.240029 	0
0.106844 	-111.105 	43.9719 	-0.23147 	0
0.107415 	-111.066 	43.9935 	-0.222915 	0
0.107986 	-111.032 	44.0183 	-0.214303 	0
0.108558 	-110.999 	44.0452 	-0.205815 	0
0.109129 	-110.97 	44.0744 	-0.197325 	0
0.109701 	-110.942 	44.0912 	-0.188713 	0
0.110272 	-110.916 	43.9336 	-0.178354 	0
0.110843 	-110.891 	42.9875 	-0.155382 	0
0.111415 	-110.875 	40.89 	-0.11676 	0
0.111986 	-110.87 	38.0502 	-0.0783165 	0
0.112557 	-110.879 	34.7883 	-0.0459479 	0
0.113129 	-110.899 	30.2237 	-0.0194311 	0
0.1137 	-110.921 	1.32259e-10 	-5.01176e-15 	0
