0.0131412 	-157.625 	20.0754 	-0.00507582 	0
0.0137126 	-157.609 	24.9643 	-0.00385248 	0
0.0142839 	-157.581 	28.9404 	0.0143822 	0
0.0148553 	-157.552 	31.955 	0.0353023 	0
0.0154266 	-157.533 	33.5245 	0.0378271 	0
0.015998 	-157.512 	34.5055 	0.0344768 	0
0.0165693 	-157.488 	35.3277 	0.0308964 	0
0.0171407 	-157.461 	36.0408 	0.0272248 	0
0.0177121 	-157.431 	36.6736 	0.0234985 	0
0.0182834 	-157.398 	37.2481 	0.0197472 	0
0.0188548 	-157.362 	37.7641 	0.0159045 	0
0.0194261 	-157.323 	38.2353 	0.0121233 	0
0.0199975 	-157.283 	38.6867 	0.00837348 	0
0.0205688 	-157.237 	39.0872 	0.00453365 	0
0.0211402 	-157.193 	39.4815 	0.000822368 	0
0.0217116 	-157.141 	39.8353 	-0.00297304 	0
0.0222829 	-157.092 	40.1891 	-0.0066513 	0
0.0228543 	-157.034 	40.5047 	-0.0103647 	0
0.0234256 	-156.977 	40.8176 	-0.0140894 	0
0.023997 	-156.919 	41.1157 	-0.0176345 	0
0.0245683 	-156.854 	41.3927 	-0.0212718 	0
0.0251397 	-156.791 	41.6698 	-0.0248628 	0
0.0257111 	-156.725 	41.9304 	-0.0283239 	0
0.0262824 	-156.653 	42.1759 	-0.0318348 	0
0.0268538 	-156.581 	42.4214 	-0.0353456 	0
0.0274251 	-156.512 	42.6612 	-0.0386639 	0
0.0279965 	-156.432 	42.8789 	-0.0420446 	0
0.0285678 	-156.352 	43.0965 	-0.0454253 	0
0.0291392 	-156.274 	43.3142 	-0.0487471 	0
0.0297106 	-156.194 	43.5121 	-0.051907 	0
0.0302819 	-156.105 	43.6812 	-0.0550305 	0
0.0308533 	-156.016 	43.8503 	-0.0581539 	0
0.0314246 	-155.928 	44.0194 	-0.0612648 	0
0.031996 	-155.846 	44.183 	-0.0642127 	0
0.0325673 	-155.75 	44.2458 	-0.0669872 	0
0.0331387 	-155.653 	44.3086 	-0.0697618 	0
0.0337101 	-155.557 	44.3714 	-0.0725363 	0
0.0342814 	-155.462 	44.4343 	-0.0752828 	0
0.0348528 	-155.373 	44.4934 	-0.077925 	0
0.0354241 	-155.272 	44.4901 	-0.080399 	0
0.0359955 	-155.171 	44.4868 	-0.0828729 	0
0.0365668 	-155.069 	44.4835 	-0.0853469 	0
0.0371382 	-154.968 	44.4802 	-0.0878208 	0
0.0377095 	-154.872 	44.477 	-0.0902372 	0
0.0382809 	-154.776 	44.4738 	-0.0925617 	0
0.0388523 	-154.67 	44.4702 	-0.0947585 	0
0.0394236 	-154.565 	44.4666 	-0.0969553 	0
0.039995 	-154.46 	44.4631 	-0.0991522 	0
0.0405663 	-154.354 	44.4595 	-0.101349 	0
0.0411377 	-154.252 	44.456 	-0.103528 	0
0.041709 	-154.155 	44.4527 	-0.105666 	0
0.0422804 	-154.05 	44.4495 	-0.10762 	0
0.0428518 	-153.942 	44.4463 	-0.109518 	0
0.0434231 	-153.833 	44.4432 	-0.111417 	0
0.0439945 	-153.725 	44.4401 	-0.113316 	0
0.0445658 	-153.617 	44.4369 	-0.115214 	0
0.0451372 	-153.509 	44.4338 	-0.117113 	0
0.0457085 	-153.41 	44.4308 	-0.118981 	0
0.0462799 	-153.308 	44.4279 	-0.120771 	0
0.0468513 	-153.199 	44.4252 	-0.122324 	0
0.0474226 	-153.09 	44.4224 	-0.123877 	0
0.047994 	-152.981 	44.4196 	-0.12543 	0
0.0485653 	-152.872 	44.4168 	-0.126983 	0
0.0491367 	-152.762 	44.4141 	-0.128536 	0
0.049708 	-152.653 	44.4113 	-0.130089 	0
0.0502794 	-152.55 	44.4086 	-0.131641 	0
0.0508508 	-152.449 	44.4061 	-0.133194 	0
0.0514221 	-152.345 	44.4036 	-0.134513 	0
0.0519935 	-152.237 	44.4012 	-0.135689 	0
0.0525648 	-152.129 	44.3988 	-0.136866 	0
0.0531362 	-152.022 	44.3964 	-0.138042 	0
0.0537075 	-151.914 	44.394 	-0.139218 	0
0.0542789 	-151.806 	44.3917 	-0.140394 	0
0.0548503 	-151.699 	44.3893 	-0.14157 	0
0.0554216 	-151.592 	44.3869 	-0.142747 	0
0.055993 	-151.492 	44.3847 	-0.143952 	0
0.0565643 	-151.393 	44.3825 	-0.145158 	0
0.0571357 	-151.293 	44.3805 	-0.14604 	0
0.057707 	-151.192 	44.3786 	-0.146802 	0
0.0582784 	-151.092 	44.3767 	-0.147563 	0
0.0588497 	-150.991 	44.3748 	-0.148324 	0
0.0594211 	-150.891 	44.3729 	-0.149086 	0
0.0599925 	-150.79 	44.3711 	-0.149847 	0
0.0605638 	-150.69 	44.3692 	-0.150609 	0
0.0611352 	-150.59 	44.3673 	-0.15137 	0
0.0617065 	-150.49 	44.3654 	-0.152134 	0
0.0622779 	-150.396 	44.3637 	-0.152951 	0
0.0628492 	-150.303 	44.362 	-0.153769 	0
0.0634206 	-150.21 	44.3604 	-0.154425 	0
0.063992 	-150.117 	44.359 	-0.154824 	0
0.0645633 	-150.024 	44.3576 	-0.155222 	0
0.0651347 	-149.931 	44.3562 	-0.155621 	0
0.065706 	-149.838 	44.3548 	-0.15602 	0
0.0662774 	-149.745 	44.3535 	-0.156419 	0
0.0668487 	-149.652 	44.3521 	-0.156818 	0
0.0674201 	-149.559 	44.3507 	-0.157217 	0
0.0679915 	-149.466 	44.3493 	-0.157616 	0
0.0685628 	-149.377 	44.3481 	-0.158071 	0
0.0691342 	-149.291 	44.3468 	-0.158549 	0
0.0697055 	-149.204 	44.3456 	-0.15901 	0
0.0702769 	-149.118 	44.3448 	-0.15911 	0
0.0708482 	-149.032 	44.3439 	-0.15921 	0
0.0714196 	-148.945 	44.3431 	-0.159309 	0
0.071991 	-148.859 	44.3423 	-0.159409 	0
0.0725623 	-148.773 	44.3414 	-0.159509 	0
0.0731337 	-148.687 	44.3406 	-0.159609 	0
0.073705 	-148.6 	44.3398 	-0.159708 	0
0.0742764 	-148.517 	44.339 	-0.159855 	0
0.0748477 	-148.436 	44.3383 	-0.160055 	0
0.0754191 	-148.357 	44.3376 	-0.160203 	0
0.0759905 	-148.28 	44.3374 	-0.160063 	0
0.0765618 	-148.203 	44.3372 	-0.159924 	0
0.0771332 	-148.126 	44.337 	-0.159784 	0
0.0777045 	-148.049 	44.3368 	-0.159645 	0
0.0782759 	-147.972 	44.3365 	-0.159505 	0
0.0788472 	-147.895 	44.3363 	-0.159366 	0
0.0794186 	-147.821 	44.3361 	-0.159288 	0
0.0799899 	-147.749 	44.336 	-0.159262 	0
0.0805613 	-147.68 	44.3362 	-0.159081 	0
0.0811327 	-147.612 	44.3367 	-0.158761 	0
0.081704 	-147.544 	44.3371 	-0.158442 	0
0.0822754 	-147.476 	44.3376 	-0.158122 	0
0.0828467 	-147.408 	44.338 	-0.157802 	0
0.0834181 	-147.34 	44.3385 	-0.157482 	0
0.0839894 	-147.276 	44.339 	-0.157256 	0
0.0845608 	-147.212 	44.3395 	-0.157058 	0
0.0851322 	-147.153 	44.3408 	-0.156601 	0
0.0857035 	-147.093 	44.342 	-0.156144 	0
0.0862749 	-147.034 	44.3432 	-0.155686 	0
0.0868462 	-146.974 	44.3444 	-0.155229 	0
0.0874176 	-146.915 	44.3456 	-0.154772 	0
0.0879889 	-146.859 	44.3469 	-0.15444 	0
0.0885603 	-146.805 	44.3485 	-0.15401 	0
0.0891317 	-146.753 	44.3506 	-0.153449 	0
0.089703 	-146.701 	44.3527 	-0.152888 	0
0.0902744 	-146.649 	44.3548 	-0.152327 	0
0.0908457 	-146.597 	44.3568 	-0.151773 	0
0.0914171 	-146.548 	44.359 	-0.151346 	0
0.0919884 	-146.502 	44.3619 	-0.150767 	0
0.0925598 	-146.457 	44.365 	-0.150127 	0
0.0931312 	-146.412 	44.3681 	-0.149487 	0
0.0937025 	-146.367 	44.3713 	-0.148847 	0
0.0942739 	-146.324 	44.3744 	-0.14833 	0
0.0948452 	-146.284 	44.3785 	-0.147686 	0
0.0954166 	-146.245 	44.3829 	-0.146987 	0
0.0959879 	-146.206 	44.3873 	-0.146288 	0
0.0965593 	-146.168 	44.3917 	-0.145642 	0
0.0971307 	-146.133 	44.3967 	-0.145017 	0
0.097702 	-146.099 	44.4026 	-0.144274 	0
0.0982734 	-146.065 	44.4085 	-0.143531 	0
0.0988447 	-146.032 	44.4144 	-0.142852 	0
0.0994161 	-146.002 	44.4213 	-0.142153 	0
0.0999874 	-145.973 	44.429 	-0.141378 	0
0.100559 	-145.944 	44.4367 	-0.140606 	0
0.10113 	-145.918 	44.445 	-0.139933 	0
0.101702 	-145.893 	44.4548 	-0.139135 	0
0.102273 	-145.868 	44.4647 	-0.138342 	0
0.102844 	-145.846 	44.4754 	-0.137631 	0
0.103416 	-145.825 	44.4876 	-0.136818 	0
0.103987 	-145.804 	44.4999 	-0.136067 	0
0.104558 	-145.786 	44.5144 	-0.135269 	0
0.10513 	-145.768 	44.5293 	-0.134468 	0
0.105701 	-145.753 	44.5461 	-0.133694 	0
0.106272 	-145.738 	44.564 	-0.132891 	0
0.106844 	-145.725 	44.584 	-0.132102 	0
0.107415 	-145.713 	44.6051 	-0.131329 	0
0.107986 	-145.702 	44.6292 	-0.130499 	0
0.108558 	-145.693 	44.6552 	-0.129721 	0
0.109129 	-145.685 	44.6835 	-0.128939 	0
0.109701 	-145.679 	44.7145 	-0.128155 	0
0.110272 	-145.674 	44.7487 	-0.127366 	0
0.110843 	-145.67 	44.7864 	-0.126596 	0
0.111415 	-145.667 	44.8101 	-0.125934 	0
0.111986 	-145.664 	43.8761 	-0.11229 	0
0.112557 	-145.68 	39.8008 	-0.0619194 	0
0.113129 	-145.71 	33.7276 	-0.0212956 	0
0.1137 	-145.736 	1.57343e-10 	-5.24948e-15 	0
