0.0131412 	-167.375 	20.491 	-0.0103932 	0
0.0137126 	-167.363 	24.8925 	-0.0217053 	0
0.0142839 	-167.326 	28.2828 	-0.0219486 	0
0.0148553 	-167.275 	31.3625 	-0.0123921 	0
0.0154266 	-167.217 	33.5745 	-0.00627729 	0
0.015998 	-167.158 	34.7456 	-0.0129567 	0
0.0165693 	-167.09 	35.5847 	-0.0219945 	0
0.0171407 	-167.014 	36.2986 	-0.0309378 	0
0.0177121 	-166.928 	36.9307 	-0.0397952 	0
0.0182834 	-166.835 	37.5036 	-0.0485478 	0
0.0188548 	-166.734 	38.0177 	-0.0570362 	0
0.0194261 	-166.622 	38.4864 	-0.0654791 	0
0.0199975 	-166.508 	38.9353 	-0.0737657 	0
0.0205688 	-166.379 	39.3329 	-0.0818598 	0
0.0211402 	-166.248 	39.7243 	-0.0898973 	0
0.0217116 	-166.106 	40.0749 	-0.0976514 	0
0.0222829 	-165.965 	40.4257 	-0.105353 	0
0.0228543 	-165.804 	40.7378 	-0.112844 	0
0.0234256 	-165.648 	41.0475 	-0.120183 	0
0.023997 	-165.479 	41.342 	-0.127484 	0
0.0245683 	-165.306 	41.6157 	-0.134423 	0
0.0251397 	-165.133 	41.8893 	-0.141362 	0
0.0257111 	-164.945 	42.1462 	-0.148167 	0
0.0262824 	-164.755 	42.3883 	-0.154615 	0
0.0268538 	-164.565 	42.6303 	-0.161063 	0
0.0274251 	-164.368 	42.8663 	-0.16747 	0
0.0279965 	-164.157 	43.0799 	-0.173482 	0
0.0285678 	-163.951 	43.2936 	-0.179441 	0
0.0291392 	-163.745 	43.5074 	-0.185399 	0
0.0297106 	-163.523 	43.7002 	-0.191116 	0
0.0302819 	-163.299 	43.8639 	-0.196291 	0
0.0308533 	-163.076 	44.0275 	-0.201457 	0
0.0314246 	-162.854 	44.1912 	-0.206622 	0
0.031996 	-162.629 	44.3491 	-0.211735 	0
0.0325673 	-162.385 	44.4062 	-0.215873 	0
0.0331387 	-162.15 	44.4637 	-0.219965 	0
0.0337101 	-161.916 	44.5212 	-0.224058 	0
0.0342814 	-161.681 	44.5786 	-0.22815 	0
0.0348528 	-161.446 	44.6322 	-0.23219 	0
0.0354241 	-161.197 	44.6249 	-0.23541 	0
0.0359955 	-160.959 	44.618 	-0.23862 	0
0.0365668 	-160.722 	44.611 	-0.241831 	0
0.0371382 	-160.484 	44.6041 	-0.245042 	0
0.0377095 	-160.246 	44.5971 	-0.248253 	0
0.0382809 	-160.002 	44.5902 	-0.251223 	0
0.0388523 	-159.759 	44.5835 	-0.253739 	0
0.0394236 	-159.521 	44.577 	-0.256266 	0
0.039995 	-159.284 	44.5705 	-0.258793 	0
0.0405663 	-159.046 	44.564 	-0.261321 	0
0.0411377 	-158.809 	44.5575 	-0.263848 	0
0.041709 	-158.571 	44.551 	-0.266376 	0
0.0422804 	-158.325 	44.5446 	-0.268319 	0
0.0428518 	-158.091 	44.5386 	-0.270163 	0
0.0434231 	-157.857 	44.5327 	-0.272009 	0
0.0439945 	-157.624 	44.5268 	-0.273854 	0
0.0445658 	-157.39 	44.5208 	-0.2757 	0
0.0451372 	-157.157 	44.5149 	-0.277546 	0
0.0457085 	-156.923 	44.5089 	-0.279391 	0
0.0462799 	-156.688 	44.503 	-0.281033 	0
0.0468513 	-156.454 	44.4975 	-0.28209 	0
0.0474226 	-156.229 	44.4921 	-0.28322 	0
0.047994 	-156.004 	44.4867 	-0.28435 	0
0.0485653 	-155.779 	44.4813 	-0.28548 	0
0.0491367 	-155.554 	44.476 	-0.28661 	0
0.049708 	-155.329 	44.4706 	-0.28774 	0
0.0502794 	-155.104 	44.4652 	-0.28887 	0
0.0508508 	-154.879 	44.4599 	-0.289999 	0
0.0514221 	-154.655 	44.4547 	-0.290608 	0
0.0519935 	-154.438 	44.4499 	-0.290975 	0
0.0525648 	-154.226 	44.4452 	-0.2914 	0
0.0531362 	-154.014 	44.4405 	-0.291825 	0
0.0537075 	-153.802 	44.4357 	-0.29225 	0
0.0542789 	-153.59 	44.431 	-0.292675 	0
0.0548503 	-153.378 	44.4263 	-0.2931 	0
0.0554216 	-153.166 	44.4216 	-0.293525 	0
0.055993 	-152.954 	44.4168 	-0.29395 	0
0.0565643 	-152.742 	44.4121 	-0.294375 	0
0.0571357 	-152.54 	44.4079 	-0.2942 	0
0.057707 	-152.346 	44.4039 	-0.293884 	0
0.0582784 	-152.157 	44.4 	-0.293639 	0
0.0588497 	-151.968 	44.3961 	-0.293394 	0
0.0594211 	-151.779 	44.3923 	-0.293149 	0
0.0599925 	-151.59 	44.3884 	-0.292904 	0
0.0605638 	-151.401 	44.3845 	-0.292659 	0
0.0611352 	-151.212 	44.3807 	-0.292414 	0
0.0617065 	-151.023 	44.3768 	-0.292169 	0
0.0622779 	-150.834 	44.3729 	-0.291924 	0
0.0628492 	-150.645 	44.369 	-0.291679 	0
0.0634206 	-150.461 	44.3654 	-0.29115 	0
0.063992 	-150.286 	44.3622 	-0.290203 	0
0.0645633 	-150.117 	44.3591 	-0.28939 	0
0.0651347 	-149.949 	44.3561 	-0.288576 	0
0.065706 	-149.78 	44.353 	-0.287763 	0
0.0662774 	-149.612 	44.35 	-0.28695 	0
0.0668487 	-149.443 	44.3469 	-0.286137 	0
0.0674201 	-149.275 	44.3438 	-0.285323 	0
0.0679915 	-149.106 	44.3408 	-0.28451 	0
0.0685628 	-148.937 	44.3377 	-0.283697 	0
0.0691342 	-148.769 	44.3346 	-0.282884 	0
0.0697055 	-148.601 	44.3316 	-0.28204 	0
0.0702769 	-148.442 	44.3292 	-0.280577 	0
0.0708482 	-148.291 	44.3269 	-0.279291 	0
0.0714196 	-148.139 	44.3246 	-0.278004 	0
0.071991 	-147.987 	44.3223 	-0.276717 	0
0.0725623 	-147.835 	44.32 	-0.27543 	0
0.0731337 	-147.684 	44.3177 	-0.274143 	0
0.073705 	-147.532 	44.3154 	-0.272857 	0
0.0742764 	-147.38 	44.3131 	-0.27157 	0
0.0748477 	-147.228 	44.3108 	-0.270283 	0
0.0754191 	-147.079 	44.3086 	-0.268917 	0
0.0759905 	-146.942 	44.307 	-0.267166 	0
0.0765618 	-146.809 	44.3056 	-0.265549 	0
0.0771332 	-146.676 	44.3041 	-0.263933 	0
0.0777045 	-146.544 	44.3027 	-0.262316 	0
0.0782759 	-146.411 	44.3012 	-0.2607 	0
0.0788472 	-146.279 	44.2997 	-0.259083 	0
0.0794186 	-146.146 	44.2983 	-0.257467 	0
0.0799899 	-146.013 	44.2968 	-0.255851 	0
0.0805613 	-145.887 	44.2957 	-0.254012 	0
0.0811327 	-145.77 	44.2951 	-0.252108 	0
0.081704 	-145.654 	44.2945 	-0.250252 	0
0.0822754 	-145.539 	44.2939 	-0.248396 	0
0.0828467 	-145.423 	44.2933 	-0.246539 	0
0.0834181 	-145.307 	44.2927 	-0.244683 	0
0.0839894 	-145.191 	44.2921 	-0.242827 	0
0.0845608 	-145.076 	44.2915 	-0.24097 	0
0.0851322 	-144.972 	44.2917 	-0.238812 	0
0.0857035 	-144.871 	44.292 	-0.236779 	0
0.0862749 	-144.77 	44.2923 	-0.234746 	0
0.0868462 	-144.67 	44.2926 	-0.232713 	0
0.0874176 	-144.569 	44.2929 	-0.23068 	0
0.0879889 	-144.468 	44.2932 	-0.228647 	0
0.0885603 	-144.371 	44.2939 	-0.226478 	0
0.0891317 	-144.283 	44.2952 	-0.224285 	0
0.089703 	-144.195 	44.2965 	-0.222122 	0
0.0902744 	-144.107 	44.2978 	-0.219959 	0
0.0908457 	-144.019 	44.2991 	-0.217796 	0
0.0914171 	-143.931 	44.3005 	-0.215633 	0
0.0919884 	-143.85 	44.3026 	-0.213305 	0
0.0925598 	-143.773 	44.305 	-0.211046 	0
0.0931312 	-143.697 	44.3075 	-0.208786 	0
0.0937025 	-143.62 	44.3099 	-0.206526 	0
0.0942739 	-143.543 	44.3124 	-0.204266 	0
0.0948452 	-143.473 	44.3158 	-0.201872 	0
0.0954166 	-143.406 	44.3197 	-0.199541 	0
0.0959879 	-143.339 	44.3235 	-0.197209 	0
0.0965593 	-143.273 	44.3273 	-0.194878 	0
0.0971307 	-143.208 	44.3317 	-0.192462 	0
0.097702 	-143.15 	44.3371 	-0.190073 	0
0.0982734 	-143.092 	44.3425 	-0.187689 	0
0.0988447 	-143.034 	44.348 	-0.185305 	0
0.0994161 	-142.98 	44.3545 	-0.182838 	0
0.0999874 	-142.929 	44.3618 	-0.180417 	0
0.100559 	-142.878 	44.3691 	-0.177996 	0
0.10113 	-142.829 	44.3769 	-0.175523 	0
0.101702 	-142.785 	44.3865 	-0.173066 	0
0.102273 	-142.741 	44.396 	-0.170619 	0
0.102844 	-142.698 	44.4064 	-0.168118 	0
0.103416 	-142.66 	44.4184 	-0.165652 	0
0.103987 	-142.622 	44.4304 	-0.163187 	0
0.104558 	-142.587 	44.4447 	-0.160672 	0
0.10513 	-142.554 	44.4595 	-0.158196 	0
0.105701 	-142.523 	44.4762 	-0.15568 	0
0.106272 	-142.494 	44.4939 	-0.153198 	0
0.106844 	-142.467 	44.514 	-0.150684 	0
0.107415 	-142.442 	44.535 	-0.148192 	0
0.107986 	-142.42 	44.5592 	-0.14569 	0
0.108558 	-142.4 	44.5852 	-0.143183 	0
0.109129 	-142.381 	44.6136 	-0.140684 	0
0.109701 	-142.365 	44.6449 	-0.138197 	0
0.110272 	-142.351 	44.6794 	-0.135697 	0
0.110843 	-142.339 	44.7008 	-0.133342 	0
0.111415 	-142.326 	44.3741 	-0.126662 	0
0.111986 	-142.324 	41.9829 	-0.0905744 	0
0.112557 	-142.336 	37.92 	-0.0485145 	0
0.113129 	-142.359 	32.5474 	-0.0182519 	0
0.1137 	-142.38 	1.46784e-10 	-4.63759e-15 	0
