0 	-112.345 	0 	0 	0
0.000571357 	-112.696 	-4.34557 	-0.0951333 	0
0.00114271 	-113.262 	-3.75567 	-0.210469 	0
0.00171407 	-113.791 	-3.12541 	-0.32788 	0
0.00228543 	-114.243 	-2.45065 	-0.446913 	0
0.00285678 	-114.617 	-1.72063 	-0.566802 	0
0.00342814 	-114.918 	-0.922265 	-0.6882 	0
0.0039995 	-115.159 	-0.0474915 	-0.810833 	0
0.00457085 	-115.348 	0.912291 	-0.934793 	0
0.00514221 	-115.495 	1.96715 	-1.06082 	0
0.00571357 	-115.605 	3.12225 	-1.18859 	0
0.00628492 	-115.641 	4.38874 	-1.31801 	0
0.00685628 	-115.552 	5.81752 	-1.44974 	0
0.00742764 	-115.442 	7.4479 	-1.58397 	0
0.00799899 	-115.367 	9.25745 	-1.71831 	0
0.00857035 	-115.293 	11.1886 	-1.85138 	0
0.00914171 	-115.219 	13.2316 	-1.98153 	0
0.00971307 	-115.151 	15.3446 	-2.10863 	0
0.0102844 	-115.117 	17.4884 	-2.23139 	0
0.0108558 	-115.109 	19.6119 	-2.34966 	0
0.0114271 	-115.077 	21.6984 	-2.46253 	0
0.0119985 	-114.973 	23.8009 	-2.5689 	0
0.0125698 	-114.828 	25.6058 	-2.65181 	0
0.0131412 	-114.517 	28.4128 	-2.75837 	0
0.0137126 	-114.289 	31.1545 	-2.8389 	0
0.0142839 	-114.129 	34.0706 	-2.90634 	0
0.0148553 	-113.959 	35.4694 	-2.917 	0
0.0154266 	-113.779 	35.9722 	-2.90408 	0
0.015998 	-113.593 	36.5379 	-2.89744 	0
0.0165693 	-113.395 	37.0072 	-2.88389 	0
0.0171407 	-113.196 	37.4345 	-2.86804 	0
0.0177121 	-112.997 	37.8398 	-2.85133 	0
0.0182834 	-112.778 	38.2265 	-2.83369 	0
0.0188548 	-112.558 	38.5872 	-2.81496 	0
0.0194261 	-112.357 	38.9254 	-2.79545 	0
0.0199975 	-112.117 	39.2546 	-2.77557 	0
0.0205688 	-111.911 	39.5579 	-2.75503 	0
0.0211402 	-111.673 	39.8581 	-2.73439 	0
0.0217116 	-111.461 	40.1353 	-2.7134 	0
0.0222829 	-111.209 	40.4128 	-2.69237 	0
0.0228543 	-111.012 	40.6675 	-2.67118 	0
0.0234256 	-110.757 	40.9207 	-2.6499 	0
0.023997 	-110.533 	41.1642 	-2.62872 	0
0.0245683 	-110.308 	41.394 	-2.60763 	0
0.0251397 	-110.051 	41.6237 	-2.58652 	0
0.0257111 	-109.832 	41.8391 	-2.56539 	0
0.0262824 	-109.605 	42.0416 	-2.54426 	0
0.0268538 	-109.347 	42.2442 	-2.52313 	0
0.0274251 	-109.104 	42.4372 	-2.50184 	0
0.0279965 	-108.908 	42.594 	-2.47995 	0
0.0285678 	-108.653 	42.7521 	-2.45815 	0
0.0291392 	-108.397 	42.9102 	-2.43636 	0
0.0297106 	-108.169 	43.036 	-2.41334 	0
0.0302819 	-107.97 	43.1157 	-2.38861 	0
0.0308533 	-107.719 	43.1971 	-2.36404 	0
0.0314246 	-107.467 	43.2785 	-2.33946 	0
0.031996 	-107.219 	43.3554 	-2.31475 	0
0.0325673 	-107.039 	43.3553 	-2.28759 	0
0.0331387 	-106.82 	43.3555 	-2.26054 	0
0.0337101 	-106.582 	43.3558 	-2.23353 	0
0.0342814 	-106.343 	43.3562 	-2.20653 	0
0.0348528 	-106.108 	43.3556 	-2.1796 	0
0.0354241 	-105.939 	43.3415 	-2.15387 	0
0.0359955 	-105.747 	43.3268 	-2.12817 	0
0.0365668 	-105.526 	43.3115 	-2.10251 	0
0.0371382 	-105.306 	43.2962 	-2.07686 	0
0.0377095 	-105.086 	43.2809 	-2.0512 	0
0.0382809 	-104.886 	43.2703 	-2.02637 	0
0.0388523 	-104.727 	43.269 	-2.00314 	0
0.0394236 	-104.547 	43.2671 	-1.97996 	0
0.039995 	-104.344 	43.2646 	-1.95682 	0
0.0405663 	-104.141 	43.2621 	-1.93368 	0
0.0411377 	-103.939 	43.2596 	-1.91054 	0
0.041709 	-103.736 	43.2571 	-1.8874 	0
0.0422804 	-103.577 	43.2542 	-1.86563 	0
0.0428518 	-103.431 	43.2512 	-1.84426 	0
0.0434231 	-103.262 	43.2477 	-1.82296 	0
0.0439945 	-103.079 	43.2438 	-1.80169 	0
0.0445658 	-102.896 	43.2399 	-1.78043 	0
0.0451372 	-102.713 	43.2361 	-1.75916 	0
0.0457085 	-102.53 	43.2322 	-1.73789 	0
0.0462799 	-102.359 	43.2287 	-1.71706 	0
0.0468513 	-102.228 	43.2264 	-1.69757 	0
0.0474226 	-102.096 	43.2241 	-1.67808 	0
0.047994 	-101.939 	43.2211 	-1.65867 	0
0.0485653 	-101.777 	43.2181 	-1.63927 	0
0.0491367 	-101.614 	43.215 	-1.61988 	0
0.049708 	-101.451 	43.212 	-1.60049 	0
0.0502794 	-101.289 	43.2089 	-1.5811 	0
0.0508508 	-101.126 	43.2058 	-1.56171 	0
0.0514221 	-100.992 	43.2035 	-1.54336 	0
0.0519935 	-100.876 	43.2017 	-1.52567 	0
0.0525648 	-100.76 	43.1999 	-1.50797 	0
0.0531362 	-100.623 	43.1976 	-1.49035 	0
0.0537075 	-100.481 	43.1952 	-1.47276 	0
0.0542789 	-100.34 	43.1928 	-1.45516 	0
0.0548503 	-100.198 	43.1904 	-1.43756 	0
0.0554216 	-100.057 	43.188 	-1.41996 	0
0.055993 	-99.9151 	43.1856 	-1.40237 	0
0.0565643 	-99.7735 	43.1832 	-1.38477 	0
0.0571357 	-99.6641 	43.1816 	-1.36857 	0
0.057707 	-99.5667 	43.1804 	-1.3529 	0
0.0582784 	-99.4694 	43.1792 	-1.33723 	0
0.0588497 	-99.3616 	43.1777 	-1.32161 	0
0.0594211 	-99.2442 	43.1761 	-1.30603 	0
0.0599925 	-99.1269 	43.1744 	-1.29045 	0
0.0605638 	-99.0095 	43.1727 	-1.27487 	0
0.0611352 	-98.8922 	43.171 	-1.25929 	0
0.0617065 	-98.7749 	43.1693 	-1.24371 	0
0.0622779 	-98.6575 	43.1677 	-1.22813 	0
0.0628492 	-98.5402 	43.166 	-1.21256 	0
0.0634206 	-98.4363 	43.1647 	-1.19746 	0
0.063992 	-98.3537 	43.164 	-1.18312 	0
0.0645633 	-98.2711 	43.1634 	-1.16879 	0
0.0651347 	-98.1856 	43.1627 	-1.15447 	0
0.065706 	-98.0871 	43.1617 	-1.14022 	0
0.0662774 	-97.9886 	43.1607 	-1.12597 	0
0.0668487 	-97.8901 	43.1596 	-1.11173 	0
0.0674201 	-97.7916 	43.1586 	-1.09748 	0
0.0679915 	-97.6931 	43.1576 	-1.08323 	0
0.0685628 	-97.5946 	43.1566 	-1.06898 	0
0.0691342 	-97.4961 	43.1556 	-1.05473 	0
0.0697055 	-97.3988 	43.1546 	-1.04051 	0
0.0702769 	-97.3273 	43.1545 	-1.02683 	0
0.0708482 	-97.2557 	43.1544 	-1.01314 	0
0.0714196 	-97.1808 	43.1543 	-0.999481 	0
0.071991 	-97.0962 	43.1539 	-0.98588 	0
0.0725623 	-97.0115 	43.1535 	-0.972279 	0
0.0731337 	-96.9268 	43.1531 	-0.958678 	0
0.073705 	-96.8421 	43.1528 	-0.945077 	0
0.0742764 	-96.7574 	43.1524 	-0.931476 	0
0.0748477 	-96.6728 	43.152 	-0.917875 	0
0.0754191 	-96.5917 	43.1518 	-0.904378 	0
0.0759905 	-96.5308 	43.1523 	-0.891443 	0
0.0765618 	-96.4698 	43.1528 	-0.878508 	0
0.0771332 	-96.4011 	43.1532 	-0.865628 	0
0.0777045 	-96.3294 	43.1534 	-0.852771 	0
0.0782759 	-96.2576 	43.1537 	-0.839914 	0
0.0788472 	-96.1859 	43.154 	-0.827057 	0
0.0794186 	-96.1141 	43.1543 	-0.814199 	0
0.0799899 	-96.0424 	43.1545 	-0.801342 	0
0.0805613 	-95.9809 	43.1553 	-0.788724 	0
0.0811327 	-95.9287 	43.1565 	-0.77632 	0
0.081704 	-95.8729 	43.1576 	-0.763946 	0
0.0822754 	-95.8117 	43.1585 	-0.751616 	0
0.0828467 	-95.7505 	43.1595 	-0.739286 	0
0.0834181 	-95.6893 	43.1605 	-0.726956 	0
0.0839894 	-95.6281 	43.1614 	-0.714626 	0
0.0845608 	-95.5669 	43.1624 	-0.702297 	0
0.0851322 	-95.5218 	43.1643 	-0.690294 	0
0.0857035 	-95.4757 	43.1662 	-0.678302 	0
0.0862749 	-95.423 	43.1679 	-0.666371 	0
0.0868462 	-95.3703 	43.1697 	-0.654439 	0
0.0874176 	-95.3177 	43.1714 	-0.642508 	0
0.0879889 	-95.265 	43.1731 	-0.630577 	0
0.0885603 	-95.2183 	43.1753 	-0.618743 	0
0.0891317 	-95.1793 	43.1781 	-0.607034 	0
0.089703 	-95.135 	43.1808 	-0.595382 	0
0.0902744 	-95.0895 	43.1834 	-0.583743 	0
0.0908457 	-95.044 	43.1861 	-0.572103 	0
0.0914171 	-94.9985 	43.1887 	-0.560463 	0
0.0919884 	-94.9612 	43.1922 	-0.548938 	0
0.0925598 	-94.9255 	43.196 	-0.537479 	0
0.0931312 	-94.886 	43.1997 	-0.526066 	0
0.0937025 	-94.8464 	43.2035 	-0.514653 	0
0.0942739 	-94.8069 	43.2072 	-0.503241 	0
0.0948452 	-94.7744 	43.2119 	-0.491905 	0
0.0954166 	-94.7424 	43.217 	-0.480632 	0
0.0959879 	-94.7079 	43.2221 	-0.469392 	0
0.0965593 	-94.6734 	43.2271 	-0.458152 	0
0.0971307 	-94.642 	43.2328 	-0.446938 	0
0.097702 	-94.6148 	43.2395 	-0.43579 	0
0.0982734 	-94.5845 	43.2461 	-0.424688 	0
0.0988447 	-94.5543 	43.2528 	-0.413585 	0
0.0994161 	-94.5282 	43.2606 	-0.402508 	0
0.0999874 	-94.503 	43.2692 	-0.391491 	0
0.100559 	-94.4764 	43.2777 	-0.380497 	0
0.10113 	-94.4514 	43.2869 	-0.36951 	0
0.101702 	-94.4298 	43.2977 	-0.358573 	0
0.102273 	-94.4064 	43.3086 	-0.347671 	0
0.102844 	-94.385 	43.3203 	-0.336771 	0
0.103416 	-94.3652 	43.3338 	-0.325916 	0
0.103987 	-94.3444 	43.3472 	-0.315082 	0
0.104558 	-94.3272 	43.363 	-0.304269 	0
0.10513 	-94.3087 	43.3793 	-0.293505 	0
0.105701 	-94.2928 	43.3976 	-0.282741 	0
0.106272 	-94.2764 	43.417 	-0.272025 	0
0.106844 	-94.2621 	43.4387 	-0.261298 	0
0.107415 	-94.2474 	43.4615 	-0.250613 	0
0.107986 	-94.2351 	43.4878 	-0.240026 	0
0.108558 	-94.2232 	43.5152 	-0.229392 	0
0.109129 	-94.2113 	43.5195 	-0.218639 	0
0.109701 	-94.1989 	43.3792 	-0.20626 	0
0.110272 	-94.1853 	42.6587 	-0.184391 	0
0.110843 	-94.1761 	41.0099 	-0.148326 	0
0.111415 	-94.1733 	38.7558 	-0.109508 	0
0.111986 	-94.1795 	36.1766 	-0.0744197 	0
0.112557 	-94.1948 	33.2249 	-0.0444747 	0
0.113129 	-94.2195 	28.9179 	-0.0188831 	0
0.1137 	-94.2414 	1.23724e-10 	-4.63677e-15 	0
