0.0131412 	-154.362 	20.0742 	-0.00505879 	0
0.0137126 	-154.345 	24.9631 	-0.00380831 	0
0.0142839 	-154.318 	28.9392 	0.0144539 	0
0.0148553 	-154.289 	31.954 	0.0353996 	0
0.0154266 	-154.27 	33.5236 	0.0379447 	0
0.015998 	-154.249 	34.5046 	0.0346115 	0
0.0165693 	-154.225 	35.3268 	0.0310476 	0
0.0171407 	-154.198 	36.04 	0.0273918 	0
0.0177121 	-154.168 	36.6728 	0.023681 	0
0.0182834 	-154.136 	37.2473 	0.0199448 	0
0.0188548 	-154.1 	37.7633 	0.0161173 	0
0.0194261 	-154.061 	38.2345 	0.0123505 	0
0.0199975 	-154.022 	38.6859 	0.0086149 	0
0.0205688 	-153.976 	39.0865 	0.00478941 	0
0.0211402 	-153.931 	39.4808 	0.00109172 	0
0.0217116 	-153.88 	39.8346 	-0.00268988 	0
0.0222829 	-153.831 	40.1884 	-0.00635497 	0
0.0228543 	-153.774 	40.504 	-0.0100553 	0
0.0234256 	-153.716 	40.8169 	-0.0137667 	0
0.023997 	-153.659 	41.115 	-0.0172997 	0
0.0245683 	-153.595 	41.3921 	-0.0209246 	0
0.0251397 	-153.532 	41.6692 	-0.0245033 	0
0.0257111 	-153.466 	41.9298 	-0.027953 	0
0.0262824 	-153.395 	42.1753 	-0.0314523 	0
0.0268538 	-153.323 	42.4208 	-0.0349516 	0
0.0274251 	-153.254 	42.6606 	-0.0382593 	0
0.0279965 	-153.175 	42.8783 	-0.0416293 	0
0.0285678 	-153.095 	43.096 	-0.0449993 	0
0.0291392 	-153.017 	43.3137 	-0.0483108 	0
0.0297106 	-152.938 	43.5116 	-0.0514612 	0
0.0302819 	-152.85 	43.6807 	-0.0545755 	0
0.0308533 	-152.762 	43.8498 	-0.0576898 	0
0.0314246 	-152.674 	44.019 	-0.0607917 	0
0.031996 	-152.592 	44.1826 	-0.0637313 	0
0.0325673 	-152.496 	44.2454 	-0.0664987 	0
0.0331387 	-152.401 	44.3082 	-0.0692662 	0
0.0337101 	-152.305 	44.371 	-0.0720336 	0
0.0342814 	-152.211 	44.4339 	-0.0747731 	0
0.0348528 	-152.122 	44.493 	-0.0774088 	0
0.0354241 	-152.022 	44.4897 	-0.0798775 	0
0.0359955 	-151.921 	44.4864 	-0.0823462 	0
0.0365668 	-151.82 	44.4831 	-0.0848149 	0
0.0371382 	-151.719 	44.4798 	-0.0872836 	0
0.0377095 	-151.624 	44.4767 	-0.0896949 	0
0.0382809 	-151.528 	44.4735 	-0.0920149 	0
0.0388523 	-151.423 	44.4699 	-0.0942081 	0
0.0394236 	-151.318 	44.4664 	-0.0964013 	0
0.039995 	-151.214 	44.4628 	-0.0985944 	0
0.0405663 	-151.109 	44.4593 	-0.100788 	0
0.0411377 	-151.007 	44.4558 	-0.102963 	0
0.041709 	-150.911 	44.4524 	-0.105098 	0
0.0422804 	-150.806 	44.4493 	-0.107049 	0
0.0428518 	-150.699 	44.4461 	-0.108946 	0
0.0434231 	-150.591 	44.443 	-0.110842 	0
0.0439945 	-150.483 	44.4399 	-0.112739 	0
0.0445658 	-150.376 	44.4367 	-0.114636 	0
0.0451372 	-150.268 	44.4336 	-0.116532 	0
0.0457085 	-150.17 	44.4307 	-0.118398 	0
0.0462799 	-150.068 	44.4278 	-0.120187 	0
0.0468513 	-149.96 	44.425 	-0.12174 	0
0.0474226 	-149.851 	44.4223 	-0.123293 	0
0.047994 	-149.743 	44.4195 	-0.124846 	0
0.0485653 	-149.634 	44.4167 	-0.126399 	0
0.0491367 	-149.526 	44.414 	-0.127952 	0
0.049708 	-149.417 	44.4112 	-0.129505 	0
0.0502794 	-149.314 	44.4086 	-0.131057 	0
0.0508508 	-149.214 	44.406 	-0.132609 	0
0.0514221 	-149.11 	44.4035 	-0.133929 	0
0.0519935 	-149.003 	44.4012 	-0.135107 	0
0.0525648 	-148.896 	44.3988 	-0.136285 	0
0.0531362 	-148.789 	44.3964 	-0.137463 	0
0.0537075 	-148.682 	44.394 	-0.138641 	0
0.0542789 	-148.575 	44.3917 	-0.139819 	0
0.0548503 	-148.468 	44.3893 	-0.140997 	0
0.0554216 	-148.361 	44.3869 	-0.142176 	0
0.055993 	-148.262 	44.3847 	-0.143382 	0
0.0565643 	-148.163 	44.3825 	-0.144589 	0
0.0571357 	-148.063 	44.3806 	-0.145474 	0
0.057707 	-147.963 	44.3787 	-0.146239 	0
0.0582784 	-147.864 	44.3768 	-0.147004 	0
0.0588497 	-147.764 	44.3749 	-0.147768 	0
0.0594211 	-147.664 	44.373 	-0.148533 	0
0.0599925 	-147.564 	44.3712 	-0.149298 	0
0.0605638 	-147.464 	44.3693 	-0.150063 	0
0.0611352 	-147.364 	44.3674 	-0.150827 	0
0.0617065 	-147.264 	44.3655 	-0.151595 	0
0.0622779 	-147.172 	44.3638 	-0.152415 	0
0.0628492 	-147.079 	44.3621 	-0.153235 	0
0.0634206 	-146.986 	44.3605 	-0.153895 	0
0.063992 	-146.894 	44.3591 	-0.154298 	0
0.0645633 	-146.801 	44.3578 	-0.154702 	0
0.0651347 	-146.708 	44.3564 	-0.155105 	0
0.065706 	-146.616 	44.355 	-0.155509 	0
0.0662774 	-146.523 	44.3536 	-0.155912 	0
0.0668487 	-146.431 	44.3523 	-0.156316 	0
0.0674201 	-146.338 	44.3509 	-0.156719 	0
0.0679915 	-146.245 	44.3495 	-0.157123 	0
0.0685628 	-146.157 	44.3483 	-0.157582 	0
0.0691342 	-146.071 	44.347 	-0.158065 	0
0.0697055 	-145.985 	44.3458 	-0.15853 	0
0.0702769 	-145.899 	44.345 	-0.158636 	0
0.0708482 	-145.813 	44.3442 	-0.158741 	0
0.0714196 	-145.727 	44.3433 	-0.158846 	0
0.071991 	-145.641 	44.3425 	-0.158951 	0
0.0725623 	-145.555 	44.3417 	-0.159057 	0
0.0731337 	-145.47 	44.3408 	-0.159162 	0
0.073705 	-145.384 	44.34 	-0.159267 	0
0.0742764 	-145.3 	44.3392 	-0.15942 	0
0.0748477 	-145.22 	44.3385 	-0.159625 	0
0.0754191 	-145.141 	44.3379 	-0.159777 	0
0.0759905 	-145.064 	44.3377 	-0.159644 	0
0.0765618 	-144.988 	44.3375 	-0.159511 	0
0.0771332 	-144.911 	44.3373 	-0.159377 	0
0.0777045 	-144.835 	44.337 	-0.159244 	0
0.0782759 	-144.758 	44.3368 	-0.15911 	0
0.0788472 	-144.681 	44.3366 	-0.158977 	0
0.0794186 	-144.608 	44.3365 	-0.158905 	0
0.0799899 	-144.536 	44.3364 	-0.158885 	0
0.0805613 	-144.467 	44.3365 	-0.15871 	0
0.0811327 	-144.399 	44.337 	-0.158396 	0
0.081704 	-144.332 	44.3374 	-0.158083 	0
0.0822754 	-144.264 	44.3379 	-0.157769 	0
0.0828467 	-144.196 	44.3384 	-0.157456 	0
0.0834181 	-144.129 	44.3388 	-0.157142 	0
0.0839894 	-144.064 	44.3393 	-0.156922 	0
0.0845608 	-144.001 	44.3399 	-0.15673 	0
0.0851322 	-143.942 	44.3411 	-0.156279 	0
0.0857035 	-143.883 	44.3423 	-0.155828 	0
0.0862749 	-143.823 	44.3435 	-0.155377 	0
0.0868462 	-143.764 	44.3447 	-0.154926 	0
0.0874176 	-143.705 	44.3459 	-0.154475 	0
0.0879889 	-143.649 	44.3472 	-0.15415 	0
0.0885603 	-143.595 	44.3489 	-0.153726 	0
0.0891317 	-143.543 	44.351 	-0.153171 	0
0.089703 	-143.492 	44.353 	-0.152617 	0
0.0902744 	-143.44 	44.3551 	-0.152062 	0
0.0908457 	-143.388 	44.3572 	-0.151515 	0
0.0914171 	-143.34 	44.3594 	-0.151094 	0
0.0919884 	-143.294 	44.3622 	-0.150521 	0
0.0925598 	-143.249 	44.3654 	-0.149888 	0
0.0931312 	-143.204 	44.3685 	-0.149254 	0
0.0937025 	-143.159 	44.3716 	-0.148621 	0
0.0942739 	-143.117 	44.3748 	-0.148109 	0
0.0948452 	-143.077 	44.3789 	-0.147472 	0
0.0954166 	-143.038 	44.3833 	-0.146779 	0
0.0959879 	-142.999 	44.3877 	-0.146087 	0
0.0965593 	-142.961 	44.3921 	-0.145448 	0
0.0971307 	-142.925 	44.3971 	-0.144828 	0
0.097702 	-142.892 	44.403 	-0.144092 	0
0.0982734 	-142.858 	44.4089 	-0.143355 	0
0.0988447 	-142.826 	44.4148 	-0.142683 	0
0.0994161 	-142.796 	44.4217 	-0.14199 	0
0.0999874 	-142.767 	44.4294 	-0.141221 	0
0.100559 	-142.738 	44.4371 	-0.140456 	0
0.10113 	-142.712 	44.4454 	-0.139789 	0
0.101702 	-142.687 	44.4552 	-0.138998 	0
0.102273 	-142.662 	44.4651 	-0.138212 	0
0.102844 	-142.64 	44.4758 	-0.137507 	0
0.103416 	-142.619 	44.488 	-0.1367 	0
0.103987 	-142.598 	44.5003 	-0.135955 	0
0.104558 	-142.58 	44.5148 	-0.135163 	0
0.10513 	-142.563 	44.5297 	-0.134369 	0
0.105701 	-142.547 	44.5465 	-0.133601 	0
0.106272 	-142.532 	44.5644 	-0.132804 	0
0.106844 	-142.519 	44.5844 	-0.132021 	0
0.107415 	-142.507 	44.6055 	-0.131255 	0
0.107986 	-142.497 	44.6296 	-0.130431 	0
0.108558 	-142.488 	44.6556 	-0.12966 	0
0.109129 	-142.48 	44.6839 	-0.128884 	0
0.109701 	-142.473 	44.7149 	-0.128106 	0
0.110272 	-142.468 	44.7491 	-0.127324 	0
0.110843 	-142.464 	44.7868 	-0.12656 	0
0.111415 	-142.462 	44.8106 	-0.125905 	0
0.111986 	-142.459 	43.8766 	-0.112268 	0
0.112557 	-142.475 	39.8013 	-0.0619058 	0
0.113129 	-142.505 	33.7281 	-0.0212894 	0
0.1137 	-142.531 	1.57347e-10 	-5.24761e-15 	0
