0.0131412 	-173.079 	20.9229 	-0.0187622 	0
0.0137126 	-173.057 	25.1604 	-0.0425701 	0
0.0142839 	-172.986 	28.3008 	-0.0571154 	0
0.0148553 	-172.882 	31.2483 	-0.061644 	0
0.0154266 	-172.748 	33.6221 	-0.0633304 	0
0.015998 	-172.59 	34.9784 	-0.0758264 	0
0.0165693 	-172.417 	35.8444 	-0.0915126 	0
0.0171407 	-172.223 	36.5541 	-0.107054 	0
0.0177121 	-172.012 	37.1802 	-0.121996 	0
0.0182834 	-171.792 	37.7474 	-0.1363 	0
0.0188548 	-171.548 	38.2554 	-0.150274 	0
0.0194261 	-171.277 	38.7178 	-0.163859 	0
0.0199975 	-171.026 	39.1613 	-0.176679 	0
0.0205688 	-170.723 	39.5526 	-0.189275 	0
0.0211402 	-170.446 	39.9386 	-0.201252 	0
0.0217116 	-170.121 	40.283 	-0.212929 	0
0.0222829 	-169.831 	40.6286 	-0.224123 	0
0.0228543 	-169.486 	40.9348 	-0.234852 	0
0.0234256 	-169.166 	41.2391 	-0.245239 	0
0.023997 	-168.833 	41.5285 	-0.255263 	0
0.0245683 	-168.469 	41.7963 	-0.26489 	0
0.0251397 	-168.141 	42.0652 	-0.274252 	0
0.0257111 	-167.784 	42.3171 	-0.283172 	0
0.0262824 	-167.403 	42.5536 	-0.291691 	0
0.0268538 	-167.057 	42.7911 	-0.300033 	0
0.0274251 	-166.701 	43.0224 	-0.30819 	0
0.0279965 	-166.309 	43.2305 	-0.31566 	0
0.0285678 	-165.931 	43.439 	-0.323088 	0
0.0291392 	-165.571 	43.6481 	-0.330461 	0
0.0297106 	-165.194 	43.8357 	-0.337274 	0
0.0302819 	-164.792 	43.9923 	-0.343281 	0
0.0308533 	-164.402 	44.1494 	-0.349287 	0
0.0314246 	-164.03 	44.3073 	-0.355291 	0
0.031996 	-163.656 	44.4593 	-0.361193 	0
0.0325673 	-163.254 	44.5103 	-0.365338 	0
0.0331387 	-162.853 	44.5613 	-0.369482 	0
0.0337101 	-162.471 	44.6131 	-0.373704 	0
0.0342814 	-162.096 	44.6651 	-0.377953 	0
0.0348528 	-161.72 	44.7134 	-0.382111 	0
0.0354241 	-161.332 	44.7023 	-0.384842 	0
0.0359955 	-160.944 	44.6912 	-0.387572 	0
0.0365668 	-160.565 	44.6804 	-0.39037 	0
0.0371382 	-160.2 	44.67 	-0.39327 	0
0.0377095 	-159.835 	44.6596 	-0.39617 	0
0.0382809 	-159.469 	44.6495 	-0.398693 	0
0.0388523 	-159.098 	44.64 	-0.400468 	0
0.0394236 	-158.728 	44.6305 	-0.402242 	0
0.039995 	-158.363 	44.6212 	-0.404072 	0
0.0405663 	-158.012 	44.6121 	-0.406038 	0
0.0411377 	-157.662 	44.6031 	-0.408004 	0
0.041709 	-157.312 	44.5941 	-0.40997 	0
0.0422804 	-156.962 	44.5854 	-0.411102 	0
0.0428518 	-156.613 	44.5769 	-0.411985 	0
0.0434231 	-156.263 	44.5684 	-0.412869 	0
0.0439945 	-155.919 	44.5599 	-0.41381 	0
0.0445658 	-155.587 	44.5518 	-0.4149 	0
0.0451372 	-155.254 	44.5436 	-0.415989 	0
0.0457085 	-154.922 	44.5355 	-0.417079 	0
0.0462799 	-154.592 	44.5275 	-0.417901 	0
0.0468513 	-154.268 	44.5199 	-0.417902 	0
0.0474226 	-153.945 	44.5123 	-0.417903 	0
0.047994 	-153.621 	44.5048 	-0.417904 	0
0.0485653 	-153.3 	44.4973 	-0.417956 	0
0.0491367 	-152.991 	44.49 	-0.418174 	0
0.049708 	-152.681 	44.4827 	-0.418391 	0
0.0502794 	-152.372 	44.4755 	-0.418608 	0
0.0508508 	-152.062 	44.4682 	-0.418826 	0
0.0514221 	-151.762 	44.4614 	-0.418404 	0
0.0519935 	-151.468 	44.4548 	-0.417588 	0
0.0525648 	-151.174 	44.4483 	-0.416771 	0
0.0531362 	-150.88 	44.4417 	-0.415955 	0
0.0537075 	-150.586 	44.4352 	-0.415144 	0
0.0542789 	-150.303 	44.4288 	-0.414548 	0
0.0548503 	-150.021 	44.4225 	-0.413952 	0
0.0554216 	-149.738 	44.4162 	-0.413356 	0
0.055993 	-149.456 	44.4099 	-0.41276 	0
0.0565643 	-149.173 	44.4036 	-0.412164 	0
0.0571357 	-148.911 	44.398 	-0.410893 	0
0.057707 	-148.657 	44.3927 	-0.409369 	0
0.0582784 	-148.403 	44.3874 	-0.407845 	0
0.0588497 	-148.149 	44.3821 	-0.40632 	0
0.0594211 	-147.894 	44.3767 	-0.404796 	0
0.0599925 	-147.644 	44.3715 	-0.40337 	0
0.0605638 	-147.399 	44.3664 	-0.40206 	0
0.0611352 	-147.154 	44.3612 	-0.40075 	0
0.0617065 	-146.909 	44.3561 	-0.399441 	0
0.0622779 	-146.663 	44.351 	-0.398131 	0
0.0628492 	-146.418 	44.3459 	-0.396821 	0
0.0634206 	-146.182 	44.3411 	-0.395198 	0
0.063992 	-145.962 	44.3368 	-0.393076 	0
0.0645633 	-145.741 	44.3326 	-0.390955 	0
0.0651347 	-145.52 	44.3284 	-0.388834 	0
0.065706 	-145.299 	44.3242 	-0.386712 	0
0.0662774 	-145.079 	44.3199 	-0.384616 	0
0.0668487 	-144.865 	44.3159 	-0.382704 	0
0.0674201 	-144.652 	44.3118 	-0.380793 	0
0.0679915 	-144.438 	44.3077 	-0.378882 	0
0.0685628 	-144.224 	44.3036 	-0.376971 	0
0.0691342 	-144.01 	44.2996 	-0.37506 	0
0.0697055 	-143.797 	44.2955 	-0.373116 	0
0.0702769 	-143.602 	44.2923 	-0.370483 	0
0.0708482 	-143.407 	44.289 	-0.367851 	0
0.0714196 	-143.212 	44.2857 	-0.365218 	0
0.071991 	-143.017 	44.2825 	-0.362585 	0
0.0725623 	-142.825 	44.2793 	-0.360048 	0
0.0731337 	-142.636 	44.2761 	-0.357625 	0
0.073705 	-142.446 	44.273 	-0.355202 	0
0.0742764 	-142.257 	44.2699 	-0.35278 	0
0.0748477 	-142.068 	44.2667 	-0.350357 	0
0.0754191 	-141.882 	44.2637 	-0.347852 	0
0.0759905 	-141.714 	44.2615 	-0.344899 	0
0.0765618 	-141.545 	44.2592 	-0.341945 	0
0.0771332 	-141.377 	44.257 	-0.338991 	0
0.0777045 	-141.21 	44.2548 	-0.336068 	0
0.0782759 	-141.046 	44.2526 	-0.333319 	0
0.0788472 	-140.883 	44.2505 	-0.330569 	0
0.0794186 	-140.719 	44.2483 	-0.32782 	0
0.0799899 	-140.556 	44.2462 	-0.325071 	0
0.0805613 	-140.402 	44.2445 	-0.322093 	0
0.0811327 	-140.256 	44.2432 	-0.31891 	0
0.081704 	-140.111 	44.242 	-0.315727 	0
0.0822754 	-139.966 	44.2407 	-0.312551 	0
0.0828467 	-139.824 	44.2395 	-0.309568 	0
0.0834181 	-139.683 	44.2383 	-0.306585 	0
0.0839894 	-139.541 	44.2372 	-0.303602 	0
0.0845608 	-139.4 	44.236 	-0.300618 	0
0.0851322 	-139.274 	44.2357 	-0.297271 	0
0.0857035 	-139.148 	44.2355 	-0.293924 	0
0.0862749 	-139.022 	44.2352 	-0.290577 	0
0.0868462 	-138.899 	44.2351 	-0.287416 	0
0.0874176 	-138.776 	44.2349 	-0.284264 	0
0.0879889 	-138.653 	44.2347 	-0.281113 	0
0.0885603 	-138.536 	44.235 	-0.277823 	0
0.0891317 	-138.427 	44.2358 	-0.274356 	0
0.089703 	-138.317 	44.2367 	-0.27089 	0
0.0902744 	-138.21 	44.2376 	-0.267573 	0
0.0908457 	-138.103 	44.2385 	-0.264298 	0
0.0914171 	-137.997 	44.2394 	-0.261024 	0
0.0919884 	-137.898 	44.2411 	-0.25755 	0
0.0925598 	-137.803 	44.2432 	-0.253996 	0
0.0931312 	-137.709 	44.2453 	-0.250516 	0
0.0937025 	-137.616 	44.2474 	-0.247152 	0
0.0942739 	-137.523 	44.2495 	-0.243787 	0
0.0948452 	-137.438 	44.2526 	-0.240241 	0
0.0954166 	-137.355 	44.2561 	-0.236624 	0
0.0959879 	-137.273 	44.2597 	-0.233137 	0
0.0965593 	-137.193 	44.2632 	-0.229707 	0
0.0971307 	-137.115 	44.2673 	-0.226193 	0
0.097702 	-137.043 	44.2725 	-0.22253 	0
0.0982734 	-136.971 	44.2777 	-0.218978 	0
0.0988447 	-136.901 	44.2828 	-0.215501 	0
0.0994161 	-136.835 	44.2891 	-0.211901 	0
0.0999874 	-136.772 	44.2962 	-0.208211 	0
0.100559 	-136.71 	44.3033 	-0.2047 	0
0.10113 	-136.65 	44.311 	-0.201139 	0
0.101702 	-136.595 	44.3204 	-0.197422 	0
0.102273 	-136.541 	44.3297 	-0.193872 	0
0.102844 	-136.489 	44.34 	-0.190268 	0
0.103416 	-136.441 	44.3519 	-0.186573 	0
0.103987 	-136.394 	44.3638 	-0.183025 	0
0.104558 	-136.351 	44.378 	-0.179318 	0
0.10513 	-136.31 	44.3927 	-0.175729 	0
0.105701 	-136.271 	44.4094 	-0.172056 	0
0.106272 	-136.235 	44.4271 	-0.168451 	0
0.106844 	-136.202 	44.4471 	-0.164761 	0
0.107415 	-136.17 	44.4682 	-0.161182 	0
0.107986 	-136.142 	44.4924 	-0.157511 	0
0.108558 	-136.116 	44.5185 	-0.153856 	0
0.109129 	-136.092 	44.547 	-0.150241 	0
0.109701 	-136.071 	44.5784 	-0.146612 	0
0.110272 	-136.052 	44.6114 	-0.143053 	0
0.110843 	-136.035 	44.5668 	-0.138834 	0
0.111415 	-136.018 	43.8214 	-0.125044 	0
0.111986 	-136.016 	41.0313 	-0.0840178 	0
0.112557 	-136.025 	37.1546 	-0.0457519 	0
0.113129 	-136.047 	32.0295 	-0.0179116 	0
0.1137 	-136.067 	1.43793e-10 	-4.63835e-15 	0
