0.0131412 	-164.064 	20.4879 	-0.0103436 	0
0.0137126 	-164.052 	24.8895 	-0.0215847 	0
0.0142839 	-164.015 	28.2798 	-0.021759 	0
0.0148553 	-163.964 	31.3596 	-0.0121352 	0
0.0154266 	-163.907 	33.572 	-0.00595495 	0
0.015998 	-163.848 	34.7433 	-0.0125803 	0
0.0165693 	-163.781 	35.5825 	-0.0215693 	0
0.0171407 	-163.704 	36.2966 	-0.0304656 	0
0.0177121 	-163.619 	36.9287 	-0.0392774 	0
0.0182834 	-163.526 	37.5017 	-0.0479855 	0
0.0188548 	-163.426 	38.0158 	-0.0564316 	0
0.0194261 	-163.315 	38.4846 	-0.0648328 	0
0.0199975 	-163.202 	38.9335 	-0.0730788 	0
0.0205688 	-163.074 	39.3311 	-0.0811339 	0
0.0211402 	-162.944 	39.7225 	-0.0891328 	0
0.0217116 	-162.802 	40.0732 	-0.0968505 	0
0.0222829 	-162.662 	40.424 	-0.104516 	0
0.0228543 	-162.503 	40.7362 	-0.111972 	0
0.0234256 	-162.348 	41.0459 	-0.119278 	0
0.023997 	-162.18 	41.3405 	-0.126546 	0
0.0245683 	-162.008 	41.6142 	-0.133455 	0
0.0251397 	-161.836 	41.8878 	-0.140363 	0
0.0257111 	-161.649 	42.1448 	-0.147139 	0
0.0262824 	-161.461 	42.3868 	-0.153561 	0
0.0268538 	-161.272 	42.6289 	-0.159982 	0
0.0274251 	-161.076 	42.8649 	-0.166361 	0
0.0279965 	-160.867 	43.0786 	-0.172351 	0
0.0285678 	-160.662 	43.2924 	-0.178286 	0
0.0291392 	-160.458 	43.5061 	-0.184221 	0
0.0297106 	-160.237 	43.6991 	-0.189917 	0
0.0302819 	-160.015 	43.8627 	-0.195074 	0
0.0308533 	-159.794 	44.0265 	-0.200222 	0
0.0314246 	-159.572 	44.1902 	-0.20537 	0
0.031996 	-159.349 	44.3481 	-0.210465 	0
0.0325673 	-159.107 	44.4053 	-0.214592 	0
0.0331387 	-158.874 	44.4628 	-0.218673 	0
0.0337101 	-158.641 	44.5203 	-0.222754 	0
0.0342814 	-158.408 	44.5779 	-0.226835 	0
0.0348528 	-158.174 	44.6315 	-0.230864 	0
0.0354241 	-157.927 	44.6243 	-0.234078 	0
0.0359955 	-157.691 	44.6174 	-0.237284 	0
0.0365668 	-157.455 	44.6104 	-0.240489 	0
0.0371382 	-157.219 	44.6035 	-0.243694 	0
0.0377095 	-156.983 	44.5966 	-0.2469 	0
0.0382809 	-156.741 	44.5897 	-0.249866 	0
0.0388523 	-156.498 	44.5831 	-0.252382 	0
0.0394236 	-156.263 	44.5766 	-0.254909 	0
0.039995 	-156.027 	44.5701 	-0.257436 	0
0.0405663 	-155.791 	44.5636 	-0.259963 	0
0.0411377 	-155.555 	44.5571 	-0.26249 	0
0.041709 	-155.319 	44.5506 	-0.265017 	0
0.0422804 	-155.074 	44.5443 	-0.266964 	0
0.0428518 	-154.841 	44.5384 	-0.268813 	0
0.0434231 	-154.609 	44.5325 	-0.270663 	0
0.0439945 	-154.377 	44.5266 	-0.272512 	0
0.0445658 	-154.145 	44.5206 	-0.274362 	0
0.0451372 	-153.913 	44.5147 	-0.276212 	0
0.0457085 	-153.681 	44.5088 	-0.278062 	0
0.0462799 	-153.447 	44.503 	-0.27971 	0
0.0468513 	-153.215 	44.4974 	-0.280776 	0
0.0474226 	-152.991 	44.4921 	-0.281915 	0
0.047994 	-152.767 	44.4867 	-0.283054 	0
0.0485653 	-152.543 	44.4814 	-0.284192 	0
0.0491367 	-152.32 	44.476 	-0.285331 	0
0.049708 	-152.096 	44.4707 	-0.286469 	0
0.0502794 	-151.872 	44.4653 	-0.287608 	0
0.0508508 	-151.649 	44.46 	-0.288746 	0
0.0514221 	-151.425 	44.4549 	-0.289366 	0
0.0519935 	-151.21 	44.4501 	-0.289746 	0
0.0525648 	-150.999 	44.4454 	-0.290183 	0
0.0531362 	-150.788 	44.4407 	-0.29062 	0
0.0537075 	-150.577 	44.436 	-0.291057 	0
0.0542789 	-150.367 	44.4313 	-0.291494 	0
0.0548503 	-150.156 	44.4266 	-0.291931 	0
0.0554216 	-149.945 	44.4219 	-0.292368 	0
0.055993 	-149.734 	44.4171 	-0.292806 	0
0.0565643 	-149.523 	44.4124 	-0.293243 	0
0.0571357 	-149.322 	44.4082 	-0.293083 	0
0.057707 	-149.129 	44.4042 	-0.292781 	0
0.0582784 	-148.941 	44.4004 	-0.29255 	0
0.0588497 	-148.753 	44.3965 	-0.292318 	0
0.0594211 	-148.565 	44.3927 	-0.292087 	0
0.0599925 	-148.377 	44.3888 	-0.291856 	0
0.0605638 	-148.188 	44.385 	-0.291625 	0
0.0611352 	-148 	44.3811 	-0.291394 	0
0.0617065 	-147.812 	44.3773 	-0.291163 	0
0.0622779 	-147.624 	44.3734 	-0.290932 	0
0.0628492 	-147.436 	44.3695 	-0.290701 	0
0.0634206 	-147.252 	44.3659 	-0.290186 	0
0.063992 	-147.078 	44.3627 	-0.289255 	0
0.0645633 	-146.91 	44.3597 	-0.288456 	0
0.0651347 	-146.742 	44.3566 	-0.287657 	0
0.065706 	-146.574 	44.3536 	-0.286858 	0
0.0662774 	-146.407 	44.3505 	-0.286059 	0
0.0668487 	-146.239 	44.3475 	-0.28526 	0
0.0674201 	-146.071 	44.3444 	-0.284462 	0
0.0679915 	-145.903 	44.3413 	-0.283663 	0
0.0685628 	-145.735 	44.3383 	-0.282864 	0
0.0691342 	-145.567 	44.3352 	-0.282065 	0
0.0697055 	-145.4 	44.3322 	-0.281236 	0
0.0702769 	-145.242 	44.3298 	-0.279789 	0
0.0708482 	-145.091 	44.3275 	-0.278517 	0
0.0714196 	-144.939 	44.3252 	-0.277244 	0
0.071991 	-144.788 	44.3229 	-0.275972 	0
0.0725623 	-144.637 	44.3206 	-0.274699 	0
0.0731337 	-144.486 	44.3183 	-0.273427 	0
0.073705 	-144.334 	44.316 	-0.272155 	0
0.0742764 	-144.183 	44.3137 	-0.270882 	0
0.0748477 	-144.032 	44.3115 	-0.26961 	0
0.0754191 	-143.883 	44.3093 	-0.268258 	0
0.0759905 	-143.746 	44.3077 	-0.266521 	0
0.0765618 	-143.614 	44.3063 	-0.264918 	0
0.0771332 	-143.482 	44.3048 	-0.263315 	0
0.0777045 	-143.349 	44.3034 	-0.261712 	0
0.0782759 	-143.217 	44.3019 	-0.260109 	0
0.0788472 	-143.085 	44.3004 	-0.258506 	0
0.0794186 	-142.953 	44.299 	-0.256903 	0
0.0799899 	-142.82 	44.2975 	-0.2553 	0
0.0805613 	-142.695 	44.2965 	-0.253474 	0
0.0811327 	-142.578 	44.2958 	-0.251583 	0
0.081704 	-142.462 	44.2952 	-0.24974 	0
0.0822754 	-142.347 	44.2946 	-0.247896 	0
0.0828467 	-142.232 	44.294 	-0.246052 	0
0.0834181 	-142.116 	44.2934 	-0.244208 	0
0.0839894 	-142.001 	44.2928 	-0.242364 	0
0.0845608 	-141.885 	44.2922 	-0.240519 	0
0.0851322 	-141.782 	44.2924 	-0.238374 	0
0.0857035 	-141.681 	44.2927 	-0.236352 	0
0.0862749 	-141.581 	44.293 	-0.234331 	0
0.0868462 	-141.48 	44.2934 	-0.232309 	0
0.0874176 	-141.379 	44.2937 	-0.230287 	0
0.0879889 	-141.279 	44.294 	-0.228266 	0
0.0885603 	-141.182 	44.2947 	-0.226107 	0
0.0891317 	-141.094 	44.296 	-0.223926 	0
0.089703 	-141.006 	44.2973 	-0.221773 	0
0.0902744 	-140.918 	44.2986 	-0.219621 	0
0.0908457 	-140.831 	44.2999 	-0.217468 	0
0.0914171 	-140.743 	44.3012 	-0.215315 	0
0.0919884 	-140.662 	44.3033 	-0.212999 	0
0.0925598 	-140.585 	44.3058 	-0.210748 	0
0.0931312 	-140.509 	44.3082 	-0.208498 	0
0.0937025 	-140.432 	44.3107 	-0.206248 	0
0.0942739 	-140.356 	44.3132 	-0.203998 	0
0.0948452 	-140.285 	44.3166 	-0.201614 	0
0.0954166 	-140.219 	44.3204 	-0.199292 	0
0.0959879 	-140.152 	44.3242 	-0.19697 	0
0.0965593 	-140.085 	44.328 	-0.194648 	0
0.0971307 	-140.021 	44.3324 	-0.192241 	0
0.097702 	-139.963 	44.3379 	-0.18986 	0
0.0982734 	-139.905 	44.3433 	-0.187485 	0
0.0988447 	-139.847 	44.3487 	-0.185111 	0
0.0994161 	-139.793 	44.3552 	-0.182652 	0
0.0999874 	-139.742 	44.3625 	-0.180239 	0
0.100559 	-139.692 	44.3698 	-0.177826 	0
0.10113 	-139.642 	44.3777 	-0.175362 	0
0.101702 	-139.598 	44.3872 	-0.172913 	0
0.102273 	-139.554 	44.3967 	-0.170474 	0
0.102844 	-139.512 	44.4071 	-0.16798 	0
0.103416 	-139.473 	44.4191 	-0.165523 	0
0.103987 	-139.435 	44.4311 	-0.163066 	0
0.104558 	-139.401 	44.4454 	-0.160558 	0
0.10513 	-139.367 	44.4602 	-0.15809 	0
0.105701 	-139.336 	44.4769 	-0.155582 	0
0.106272 	-139.307 	44.4947 	-0.153107 	0
0.106844 	-139.281 	44.5147 	-0.1506 	0
0.107415 	-139.256 	44.5358 	-0.148116 	0
0.107986 	-139.233 	44.5599 	-0.145621 	0
0.108558 	-139.213 	44.586 	-0.143122 	0
0.109129 	-139.195 	44.6144 	-0.140631 	0
0.109701 	-139.178 	44.6456 	-0.138151 	0
0.110272 	-139.164 	44.6801 	-0.135658 	0
0.110843 	-139.152 	44.7016 	-0.13331 	0
0.111415 	-139.139 	44.3749 	-0.126638 	0
0.111986 	-139.137 	41.9837 	-0.0905576 	0
0.112557 	-139.149 	37.9209 	-0.048504 	0
0.113129 	-139.173 	32.5482 	-0.0182471 	0
0.1137 	-139.194 	1.4679e-10 	-4.63627e-15 	0
