0 	-156.663 	0 	0 	0
0.000571357 	-156.837 	-6.53635 	-0.0471435 	0
0.00114271 	-157.145 	-6.02864 	-0.113038 	0
0.00171407 	-157.45 	-5.43585 	-0.181987 	0
0.00228543 	-157.732 	-4.79006 	-0.254263 	0
0.00285678 	-157.982 	-4.09124 	-0.328655 	0
0.00342814 	-158.202 	-3.3298 	-0.407044 	0
0.0039995 	-158.393 	-2.50136 	-0.488745 	0
0.00457085 	-158.553 	-1.59798 	-0.57479 	0
0.00514221 	-158.683 	-0.609119 	-0.66648 	0
0.00571357 	-158.779 	0.471854 	-0.764014 	0
0.00628492 	-158.823 	1.6527 	-0.867458 	0
0.00685628 	-158.777 	2.96902 	-0.978033 	0
0.00742764 	-158.648 	4.49015 	-1.09867 	0
0.00799899 	-158.473 	6.24579 	-1.22854 	0
0.00857035 	-158.258 	8.16686 	-1.3625 	0
0.00914171 	-158.01 	10.2443 	-1.49792 	0
0.00971307 	-157.749 	12.415 	-1.63284 	0
0.0102844 	-157.51 	14.6333 	-1.76577 	0
0.0108558 	-157.287 	16.8405 	-1.89622 	0
0.0114271 	-156.987 	19.037 	-2.02257 	0
0.0119985 	-156.529 	21.3093 	-2.14227 	0
0.0125698 	-156.053 	23.3012 	-2.23529 	0
0.0131412 	-155.286 	26.3809 	-2.35317 	0
0.0137126 	-154.574 	29.2829 	-2.44224 	0
0.0142839 	-153.815 	32.4764 	-2.52378 	0
0.0148553 	-153.017 	35.225 	-2.58812 	0
0.0154266 	-152.179 	36.2588 	-2.59866 	0
0.015998 	-151.357 	36.7656 	-2.59017 	0
0.0165693 	-150.523 	37.3002 	-2.58445 	0
0.0171407 	-149.692 	37.7861 	-2.57578 	0
0.0177121 	-148.865 	38.2243 	-2.56452 	0
0.0182834 	-148.023 	38.6338 	-2.55227 	0
0.0188548 	-147.199 	39.0148 	-2.53853 	0
0.0194261 	-146.399 	39.3684 	-2.5235 	0
0.0199975 	-145.561 	39.7115 	-2.50868 	0
0.0205688 	-144.778 	40.0225 	-2.49217 	0
0.0211402 	-143.959 	40.3302 	-2.47614 	0
0.0217116 	-143.193 	40.6112 	-2.45891 	0
0.0222829 	-142.381 	40.8927 	-2.44239 	0
0.0228543 	-141.644 	41.148 	-2.42454 	0
0.0234256 	-140.855 	41.4018 	-2.40746 	0
0.023997 	-140.097 	41.6452 	-2.39004 	0
0.0245683 	-139.37 	41.8738 	-2.37232 	0
0.0251397 	-138.603 	42.1024 	-2.35521 	0
0.0257111 	-137.878 	42.3178 	-2.33763 	0
0.0262824 	-137.18 	42.521 	-2.31982 	0
0.0268538 	-136.44 	42.7244 	-2.30262 	0
0.0274251 	-135.718 	42.9197 	-2.28519 	0
0.0279965 	-135.062 	43.0846 	-2.26684 	0
0.0285678 	-134.369 	43.2502 	-2.24908 	0
0.0291392 	-133.662 	43.4162 	-2.23155 	0
0.0297106 	-132.99 	43.552 	-2.21266 	0
0.0302819 	-132.368 	43.6445 	-2.19181 	0
0.0308533 	-131.713 	43.7384 	-2.17158 	0
0.0314246 	-131.045 	43.8327 	-2.15158 	0
0.031996 	-130.382 	43.9222 	-2.13138 	0
0.0325673 	-129.81 	43.9256 	-2.10772 	0
0.0331387 	-129.233 	43.9291 	-2.08415 	0
0.0337101 	-128.619 	43.9333 	-2.06127 	0
0.0342814 	-128.006 	43.9376 	-2.0384 	0
0.0348528 	-127.398 	43.9402 	-2.01552 	0
0.0354241 	-126.887 	43.9186 	-1.99249 	0
0.0359955 	-126.376 	43.8969 	-1.96945 	0
0.0365668 	-125.835 	43.8747 	-1.94697 	0
0.0371382 	-125.288 	43.8524 	-1.92459 	0
0.0377095 	-124.74 	43.83 	-1.90221 	0
0.0382809 	-124.224 	43.8121 	-1.88032 	0
0.0388523 	-123.771 	43.8029 	-1.85941 	0
0.0394236 	-123.318 	43.7937 	-1.8385 	0
0.039995 	-122.839 	43.7838 	-1.81803 	0
0.0405663 	-122.355 	43.7738 	-1.79767 	0
0.0411377 	-121.87 	43.7637 	-1.77731 	0
0.041709 	-121.385 	43.7537 	-1.75695 	0
0.0422804 	-120.969 	43.7445 	-1.73742 	0
0.0428518 	-120.572 	43.7355 	-1.71814 	0
0.0434231 	-120.176 	43.7266 	-1.69886 	0
0.0439945 	-119.757 	43.7171 	-1.67999 	0
0.0445658 	-119.334 	43.7076 	-1.66118 	0
0.0451372 	-118.911 	43.698 	-1.64238 	0
0.0457085 	-118.489 	43.6884 	-1.62358 	0
0.0462799 	-118.086 	43.6794 	-1.60505 	0
0.0468513 	-117.745 	43.672 	-1.58734 	0
0.0474226 	-117.404 	43.6646 	-1.56964 	0
0.047994 	-117.063 	43.6573 	-1.55193 	0
0.0485653 	-116.703 	43.6494 	-1.53459 	0
0.0491367 	-116.34 	43.6415 	-1.51729 	0
0.049708 	-115.977 	43.6336 	-1.49999 	0
0.0502794 	-115.614 	43.6257 	-1.4827 	0
0.0508508 	-115.251 	43.6178 	-1.4654 	0
0.0514221 	-114.934 	43.6111 	-1.44879 	0
0.0519935 	-114.646 	43.6051 	-1.43261 	0
0.0525648 	-114.359 	43.5992 	-1.41643 	0
0.0531362 	-114.071 	43.5932 	-1.40025 	0
0.0537075 	-113.769 	43.5869 	-1.38433 	0
0.0542789 	-113.463 	43.5805 	-1.36849 	0
0.0548503 	-113.157 	43.5742 	-1.35264 	0
0.0554216 	-112.852 	43.5678 	-1.3368 	0
0.055993 	-112.546 	43.5614 	-1.32096 	0
0.0565643 	-112.24 	43.555 	-1.30512 	0
0.0571357 	-111.988 	43.55 	-1.29029 	0
0.057707 	-111.756 	43.5455 	-1.27585 	0
0.0582784 	-111.524 	43.5411 	-1.26141 	0
0.0588497 	-111.292 	43.5366 	-1.24696 	0
0.0594211 	-111.055 	43.532 	-1.23261 	0
0.0599925 	-110.809 	43.5272 	-1.21844 	0
0.0605638 	-110.563 	43.5224 	-1.20427 	0
0.0611352 	-110.317 	43.5176 	-1.1901 	0
0.0617065 	-110.071 	43.5128 	-1.17593 	0
0.0622779 	-109.824 	43.508 	-1.16176 	0
0.0628492 	-109.578 	43.5032 	-1.1476 	0
0.0634206 	-109.354 	43.499 	-1.13376 	0
0.063992 	-109.164 	43.4958 	-1.12044 	0
0.0645633 	-108.974 	43.4925 	-1.10713 	0
0.0651347 	-108.783 	43.4893 	-1.09381 	0
0.065706 	-108.593 	43.486 	-1.0805 	0
0.0662774 	-108.392 	43.4825 	-1.06741 	0
0.0668487 	-108.191 	43.479 	-1.05433 	0
0.0674201 	-107.989 	43.4755 	-1.04124 	0
0.0679915 	-107.788 	43.472 	-1.02816 	0
0.0685628 	-107.586 	43.4684 	-1.01507 	0
0.0691342 	-107.385 	43.4649 	-1.00199 	0
0.0697055 	-107.185 	43.4615 	-0.988917 	0
0.0702769 	-107.025 	43.4592 	-0.976125 	0
0.0708482 	-106.864 	43.457 	-0.963333 	0
0.0714196 	-106.704 	43.4548 	-0.950541 	0
0.071991 	-106.542 	43.4525 	-0.937791 	0
0.0725623 	-106.372 	43.45 	-0.925202 	0
0.0731337 	-106.202 	43.4476 	-0.912613 	0
0.073705 	-106.032 	43.4451 	-0.900024 	0
0.0742764 	-105.862 	43.4427 	-0.887435 	0
0.0748477 	-105.692 	43.4402 	-0.874846 	0
0.0754191 	-105.528 	43.438 	-0.862325 	0
0.0759905 	-105.394 	43.4367 	-0.850169 	0
0.0765618 	-105.26 	43.4355 	-0.838013 	0
0.0771332 	-105.125 	43.4342 	-0.825857 	0
0.0777045 	-104.985 	43.4328 	-0.813846 	0
0.0782759 	-104.843 	43.4314 	-0.80187 	0
0.0788472 	-104.701 	43.4299 	-0.789894 	0
0.0794186 	-104.56 	43.4285 	-0.777918 	0
0.0799899 	-104.418 	43.427 	-0.765942 	0
0.0805613 	-104.291 	43.4262 	-0.754109 	0
0.0811327 	-104.178 	43.4259 	-0.742405 	0
0.081704 	-104.064 	43.4256 	-0.730701 	0
0.0822754 	-103.947 	43.4251 	-0.719095 	0
0.0828467 	-103.827 	43.4247 	-0.707554 	0
0.0834181 	-103.707 	43.4242 	-0.696014 	0
0.0839894 	-103.588 	43.4237 	-0.684473 	0
0.0845608 	-103.468 	43.4233 	-0.672933 	0
0.0851322 	-103.371 	43.4239 	-0.661571 	0
0.0857035 	-103.274 	43.4245 	-0.650209 	0
0.0862749 	-103.175 	43.4251 	-0.638915 	0
0.0868462 	-103.073 	43.4256 	-0.627705 	0
0.0874176 	-102.971 	43.4261 	-0.616495 	0
0.0879889 	-102.868 	43.4266 	-0.605284 	0
0.0885603 	-102.774 	43.4276 	-0.594118 	0
0.0891317 	-102.691 	43.4293 	-0.583006 	0
0.089703 	-102.607 	43.431 	-0.571926 	0
0.0902744 	-102.519 	43.4326 	-0.560958 	0
0.0908457 	-102.431 	43.4341 	-0.54999 	0
0.0914171 	-102.343 	43.4357 	-0.539021 	0
0.0919884 	-102.267 	43.4382 	-0.528091 	0
0.0925598 	-102.195 	43.4411 	-0.517175 	0
0.0931312 	-102.119 	43.4439 	-0.506365 	0
0.0937025 	-102.043 	43.4467 	-0.495585 	0
0.0942739 	-101.967 	43.4495 	-0.484806 	0
0.0948452 	-101.901 	43.4533 	-0.474036 	0
0.0954166 	-101.838 	43.4576 	-0.463273 	0
0.0959879 	-101.772 	43.4618 	-0.452639 	0
0.0965593 	-101.706 	43.466 	-0.442004 	0
0.0971307 	-101.644 	43.4709 	-0.431365 	0
0.097702 	-101.589 	43.4768 	-0.420716 	0
0.0982734 	-101.532 	43.4827 	-0.410181 	0
0.0988447 	-101.474 	43.4886 	-0.399661 	0
0.0994161 	-101.421 	43.4957 	-0.389122 	0
0.0999874 	-101.373 	43.5036 	-0.378605 	0
0.100559 	-101.322 	43.5114 	-0.368179 	0
0.10113 	-101.273 	43.5199 	-0.35774 	0
0.101702 	-101.231 	43.5301 	-0.347281 	0
0.102273 	-101.186 	43.5403 	-0.336929 	0
0.102844 	-101.144 	43.5514 	-0.326555 	0
0.103416 	-101.106 	43.5643 	-0.31619 	0
0.103987 	-101.066 	43.577 	-0.305899 	0
0.104558 	-101.032 	43.5923 	-0.295561 	0
0.10513 	-100.997 	43.608 	-0.28533 	0
0.105701 	-100.966 	43.6257 	-0.275043 	0
0.106272 	-100.935 	43.6444 	-0.264828 	0
0.106844 	-100.907 	43.6656 	-0.254598 	0
0.107415 	-100.88 	43.6878 	-0.244462 	0
0.107986 	-100.855 	43.7134 	-0.234283 	0
0.108558 	-100.832 	43.7412 	-0.224105 	0
0.109129 	-100.811 	43.7638 	-0.214059 	0
0.109701 	-100.79 	43.7159 	-0.203356 	0
0.110272 	-100.768 	43.2579 	-0.186268 	0
0.110843 	-100.752 	41.8349 	-0.153947 	0
0.111415 	-100.746 	39.5866 	-0.114028 	0
0.111986 	-100.746 	36.9034 	-0.077316 	0
0.112557 	-100.758 	33.8381 	-0.0460586 	0
0.113129 	-100.781 	29.434 	-0.0195978 	0
0.1137 	-100.803 	1.27025e-10 	-4.91327e-15 	0
