# Wall shear stress
# Time        	patch         	min           	max           
100           	lowerWallStartup	(-3.210086e+00 -3.245732e-03 0.000000e+00)	(-1.254030e+00 9.754758e-02 0.000000e+00)
100           	upperWallStartup	(-1.414094e+01 -1.233689e-03 0.000000e+00)	(-2.987096e+00 2.087962e-01 0.000000e+00)
100           	upperWall	(-8.142660e+00 -9.094153e-03 0.000000e+00)	(2.751925e+00 4.587275e-02 0.000000e+00)
100           	verticalWall	(-1.561671e-01 -5.802147e-01 0.000000e+00)	(1.251006e-01 1.686196e-01 0.000000e+00)
100           	lowerWall	(-6.351366e+00 -8.275801e-02 0.000000e+00)	(4.574641e+00 1.132922e-01 0.000000e+00)
200           	lowerWallStartup	(-3.209502e+00 -8.781162e-03 0.000000e+00)	(-1.249698e+00 1.024594e-01 0.000000e+00)
200           	upperWallStartup	(-1.414066e+01 -1.217549e-03 0.000000e+00)	(-3.488808e+00 2.088001e-01 0.000000e+00)
200           	upperWall	(-1.839101e+01 -3.281092e-03 0.000000e+00)	(-2.498359e+00 2.993965e-03 0.000000e+00)
200           	verticalWall	(-3.002528e-01 -6.566507e-01 0.000000e+00)	(1.180728e-01 1.583744e-01 0.000000e+00)
200           	lowerWall	(-1.470188e+01 -1.415510e-01 0.000000e+00)	(5.159496e+00 6.687972e-02 0.000000e+00)
300           	lowerWallStartup	(-3.210010e+00 -3.247355e-03 0.000000e+00)	(-1.253064e+00 8.642703e-02 0.000000e+00)
300           	upperWallStartup	(-1.414103e+01 -1.236077e-03 0.000000e+00)	(-3.504884e+00 2.087947e-01 0.000000e+00)
300           	upperWall	(-3.493225e+00 -5.144533e-05 0.000000e+00)	(-2.183596e+00 1.666181e-04 0.000000e+00)
300           	verticalWall	(-5.991601e-02 -2.348567e-01 0.000000e+00)	(3.629220e-02 1.175889e-01 0.000000e+00)
300           	lowerWall	(-7.283540e+00 -4.948109e-02 0.000000e+00)	(3.468216e+00 2.509386e-02 0.000000e+00)
400           	lowerWallStartup	(-3.209981e+00 -3.248589e-03 0.000000e+00)	(-1.252718e+00 8.105893e-02 0.000000e+00)
400           	upperWallStartup	(-1.414103e+01 -1.235613e-03 0.000000e+00)	(-3.499417e+00 2.087947e-01 0.000000e+00)
400           	upperWall	(-3.491694e+00 1.649042e-06 0.000000e+00)	(-2.440080e+00 1.047420e-04 0.000000e+00)
400           	verticalWall	(-1.585500e-01 -1.071779e+00 0.000000e+00)	(1.394345e-02 4.404150e-02 0.000000e+00)
400           	lowerWall	(-1.972045e+00 -4.664006e-03 0.000000e+00)	(2.207148e+00 5.075395e-03 0.000000e+00)
500           	lowerWallStartup	(-3.209963e+00 -3.248991e-03 0.000000e+00)	(-1.252403e+00 7.860595e-02 0.000000e+00)
500           	upperWallStartup	(-1.414104e+01 -1.235977e-03 0.000000e+00)	(-3.531651e+00 2.087945e-01 0.000000e+00)
500           	upperWall	(-3.524197e+00 -6.816631e-06 0.000000e+00)	(-2.498896e+00 1.003459e-04 0.000000e+00)
500           	verticalWall	(-2.040818e-02 -2.359077e-01 0.000000e+00)	(1.072632e-02 3.503369e-02 0.000000e+00)
500           	lowerWall	(-1.656880e+00 -1.955935e-03 0.000000e+00)	(5.848716e+00 1.022431e+01 0.000000e+00)
600           	lowerWallStartup	(-3.209962e+00 -3.249001e-03 0.000000e+00)	(-1.252392e+00 7.943064e-02 0.000000e+00)
600           	upperWallStartup	(-1.414104e+01 -1.235887e-03 0.000000e+00)	(-3.537421e+00 2.087945e-01 0.000000e+00)
600           	upperWall	(-3.529821e+00 5.842714e-07 0.000000e+00)	(-2.413669e+00 9.087990e-05 0.000000e+00)
600           	verticalWall	(-2.279215e-02 -2.372580e-01 0.000000e+00)	(1.813165e-02 2.871775e-02 0.000000e+00)
600           	lowerWall	(-1.680203e+00 -8.977621e-01 0.000000e+00)	(1.030539e+00 3.868030e-04 0.000000e+00)
700           	lowerWallStartup	(-3.209964e+00 -3.248972e-03 0.000000e+00)	(-1.252415e+00 7.952927e-02 0.000000e+00)
700           	upperWallStartup	(-1.414104e+01 -1.235963e-03 0.000000e+00)	(-3.535261e+00 2.087945e-01 0.000000e+00)
700           	upperWall	(-3.527607e+00 7.096005e-06 0.000000e+00)	(-2.424474e+00 9.160152e-05 0.000000e+00)
700           	verticalWall	(-2.262850e-02 -2.373159e-01 0.000000e+00)	(8.374643e-03 2.920705e-02 0.000000e+00)
700           	lowerWall	(-1.523329e+00 -3.069487e-01 0.000000e+00)	(4.627178e+00 6.946799e+00 0.000000e+00)
800           	lowerWallStartup	(-3.209964e+00 -3.248966e-03 0.000000e+00)	(-1.252419e+00 7.952781e-02 0.000000e+00)
800           	upperWallStartup	(-1.414104e+01 -1.235904e-03 0.000000e+00)	(-3.534526e+00 2.087945e-01 0.000000e+00)
800           	upperWall	(-3.526871e+00 4.539392e-06 0.000000e+00)	(-2.478600e+00 9.165865e-05 0.000000e+00)
800           	verticalWall	(-2.247072e-02 -2.374859e-01 0.000000e+00)	(1.003453e-02 3.313314e-02 0.000000e+00)
800           	lowerWall	(-1.430341e+00 -1.513895e-03 0.000000e+00)	(1.035740e+00 5.275566e-03 0.000000e+00)
900           	lowerWallStartup	(-3.209964e+00 -3.248973e-03 0.000000e+00)	(-1.252414e+00 7.945973e-02 0.000000e+00)
900           	upperWallStartup	(-1.414104e+01 -1.235962e-03 0.000000e+00)	(-3.534866e+00 2.087945e-01 0.000000e+00)
900           	upperWall	(-3.527225e+00 2.398428e-06 0.000000e+00)	(-2.484188e+00 9.170164e-05 0.000000e+00)
900           	verticalWall	(-2.231369e-02 -2.375100e-01 0.000000e+00)	(1.157876e-02 3.672290e-02 0.000000e+00)
900           	lowerWall	(-1.500108e+00 -6.327402e-03 0.000000e+00)	(1.034646e+00 5.640497e-04 0.000000e+00)
1000          	lowerWallStartup	(-3.209964e+00 -3.248975e-03 0.000000e+00)	(-1.252411e+00 7.944053e-02 0.000000e+00)
1000          	upperWallStartup	(-1.414104e+01 -1.235919e-03 0.000000e+00)	(-3.535259e+00 2.087945e-01 0.000000e+00)
1000          	upperWall	(-3.527624e+00 3.032470e-06 0.000000e+00)	(-2.469485e+00 9.156291e-05 0.000000e+00)
1000          	verticalWall	(-7.350736e+00 -2.375537e-01 0.000000e+00)	(1.246693e-02 4.877075e+01 0.000000e+00)
1000          	lowerWall	(-1.561570e+00 -1.681466e-03 0.000000e+00)	(1.033855e+00 2.521543e-01 0.000000e+00)
1100          	lowerWallStartup	(-3.209964e+00 -3.248978e-03 0.000000e+00)	(-1.252409e+00 7.946492e-02 0.000000e+00)
1100          	upperWallStartup	(-1.414104e+01 -1.235992e-03 0.000000e+00)	(-3.535412e+00 2.087945e-01 0.000000e+00)
1100          	upperWall	(-3.527778e+00 3.552809e-06 0.000000e+00)	(-2.464758e+00 9.148667e-05 0.000000e+00)
1100          	verticalWall	(-2.201966e-02 -2.374880e-01 0.000000e+00)	(1.281962e-02 4.055489e-02 0.000000e+00)
1100          	lowerWall	(-1.574897e+00 -1.184408e-01 0.000000e+00)	(1.033633e+00 6.133814e-04 0.000000e+00)
1200          	lowerWallStartup	(-3.209964e+00 -3.248978e-03 0.000000e+00)	(-1.252409e+00 7.943950e-02 0.000000e+00)
1200          	upperWallStartup	(-1.414104e+01 -1.235930e-03 0.000000e+00)	(-3.535457e+00 2.087945e-01 0.000000e+00)
1200          	upperWall	(-3.527822e+00 3.645050e-06 0.000000e+00)	(-2.465220e+00 9.144370e-05 0.000000e+00)
1200          	verticalWall	(-2.201832e-02 -2.375880e-01 0.000000e+00)	(1.292642e-02 4.112360e-02 0.000000e+00)
1200          	lowerWall	(-1.572490e+00 -1.725227e-03 0.000000e+00)	(1.033724e+00 1.422910e+00 0.000000e+00)
1300          	lowerWallStartup	(-3.209964e+00 -3.248975e-03 0.000000e+00)	(-1.252409e+00 7.944944e-02 0.000000e+00)
1300          	upperWallStartup	(-1.414104e+01 -1.235963e-03 0.000000e+00)	(-3.535431e+00 2.087945e-01 0.000000e+00)
1300          	upperWall	(-3.527795e+00 3.621730e-06 0.000000e+00)	(-2.466261e+00 9.144150e-05 0.000000e+00)
1300          	verticalWall	(-2.207111e-02 -2.375813e-01 0.000000e+00)	(1.446457e-01 4.400802e+00 0.000000e+00)
1300          	lowerWall	(-1.567535e+00 -3.754748e-03 0.000000e+00)	(1.033831e+00 6.527027e-04 0.000000e+00)
1400          	lowerWallStartup	(-3.209964e+00 -3.248977e-03 0.000000e+00)	(-1.252409e+00 7.944719e-02 0.000000e+00)
1400          	upperWallStartup	(-1.414104e+01 -1.235986e-03 0.000000e+00)	(-3.535354e+00 2.087945e-01 0.000000e+00)
1400          	upperWall	(-3.527720e+00 3.581728e-06 0.000000e+00)	(-2.466771e+00 9.143106e-05 0.000000e+00)
1400          	verticalWall	(-2.206625e-02 -2.375685e-01 0.000000e+00)	(1.301023e-02 4.134501e-02 0.000000e+00)
1400          	lowerWall	(-1.564781e+00 -7.247451e-02 0.000000e+00)	(1.033926e+00 6.682445e-04 0.000000e+00)
1500          	lowerWallStartup	(-3.209964e+00 -3.248976e-03 0.000000e+00)	(-1.252410e+00 7.946856e-02 0.000000e+00)
1500          	upperWallStartup	(-1.414104e+01 -1.236091e-03 0.000000e+00)	(-3.535331e+00 2.087944e-01 0.000000e+00)
1500          	upperWall	(-3.527696e+00 3.561183e-06 0.000000e+00)	(-2.466897e+00 9.145700e-05 0.000000e+00)
1500          	verticalWall	(-2.199073e-02 -2.376173e-01 0.000000e+00)	(1.300888e-02 4.134586e-02 0.000000e+00)
1500          	lowerWall	(-1.564274e+00 -6.859394e-03 0.000000e+00)	(1.033987e+00 6.535070e-04 0.000000e+00)
