# Wall shear stress
# Time        	patch         	min           	max           
100           	lowerWallStartup	(-1.866799e+00 -8.217940e-04 0.000000e+00)	(-3.572940e-01 7.895042e-02 0.000000e+00)
100           	upperWallStartup	(-7.859456e+02 -6.965044e-01 0.000000e+00)	(1.681468e+00 1.053017e+01 0.000000e+00)
100           	upperWall	(-4.669405e+02 -1.075712e+01 0.000000e+00)	(1.291867e+01 5.712039e-01 0.000000e+00)
100           	verticalWall	(-5.264090e-02 -2.457325e-01 0.000000e+00)	(7.794763e+00 2.201569e+01 0.000000e+00)
100           	lowerWall	(-4.529037e+00 -5.117409e-01 0.000000e+00)	(2.402283e+00 9.726808e-01 0.000000e+00)
200           	lowerWallStartup	(-1.665693e+00 -2.185341e-03 0.000000e+00)	(-3.572184e-01 1.033008e-01 0.000000e+00)
200           	upperWallStartup	(-1.549208e+00 -2.633401e-03 0.000000e+00)	(-1.004223e-02 5.246617e-03 0.000000e+00)
200           	upperWall	(-7.998326e+00 -2.287279e-02 0.000000e+00)	(5.010496e+00 6.162899e-02 0.000000e+00)
200           	verticalWall	(-9.159486e-02 -2.396651e-01 0.000000e+00)	(1.753313e-01 8.459362e-01 0.000000e+00)
200           	lowerWall	(-1.349568e+01 -1.896483e-02 0.000000e+00)	(3.426555e+00 3.981754e-02 0.000000e+00)
300           	lowerWallStartup	(-2.258742e+00 1.615760e-05 0.000000e+00)	(-3.569640e-01 1.360693e-01 0.000000e+00)
300           	upperWallStartup	(-6.961793e+00 -1.482730e-01 0.000000e+00)	(-8.588900e-03 6.972748e-02 0.000000e+00)
300           	upperWall	(-7.523478e+02 -7.744393e+00 0.000000e+00)	(1.434251e+01 3.131037e-01 0.000000e+00)
300           	verticalWall	(-9.616713e-02 -3.270795e-01 0.000000e+00)	(5.048830e-02 1.734515e-01 0.000000e+00)
300           	lowerWall	(-5.095543e+00 -5.854252e-02 0.000000e+00)	(2.924213e+00 1.993263e-02 0.000000e+00)
400           	lowerWallStartup	(-2.141253e+00 2.470770e-05 0.000000e+00)	(-3.572601e-01 1.298334e-01 0.000000e+00)
400           	upperWallStartup	(-3.635318e+01 -1.016302e-01 0.000000e+00)	(-6.852891e-03 2.096933e-02 0.000000e+00)
400           	upperWall	(-4.062613e+02 -1.120064e+00 0.000000e+00)	(9.744213e+01 6.272504e-01 0.000000e+00)
400           	verticalWall	(-8.053939e-02 -3.019738e-01 0.000000e+00)	(1.042094e+00 1.077202e-01 0.000000e+00)
400           	lowerWall	(-3.997196e+01 -3.950308e+00 0.000000e+00)	(3.287527e+00 5.773792e-03 0.000000e+00)
500           	lowerWallStartup	(-2.189204e+00 2.423332e-05 0.000000e+00)	(-3.572934e-01 1.346820e-01 0.000000e+00)
500           	upperWallStartup	(-9.310675e-01 -3.165325e-03 0.000000e+00)	(-7.914678e-03 2.215475e-03 0.000000e+00)
500           	upperWall	(-3.969495e+02 -3.029218e-01 0.000000e+00)	(3.616177e+00 3.186265e+00 0.000000e+00)
500           	verticalWall	(-3.582900e-02 -3.214604e-01 0.000000e+00)	(4.107382e-02 2.176774e-02 0.000000e+00)
500           	lowerWall	(-4.159756e+00 -1.097086e+00 0.000000e+00)	(2.721515e+00 1.711402e-02 0.000000e+00)
600           	lowerWallStartup	(-2.099286e+00 2.340189e-05 0.000000e+00)	(-3.572975e-01 1.296553e-01 0.000000e+00)
600           	upperWallStartup	(-9.365781e-01 -3.172419e-03 0.000000e+00)	(-8.338870e-03 2.216057e-03 0.000000e+00)
600           	upperWall	(-7.665356e+01 -2.522861e-01 0.000000e+00)	(5.527685e-01 2.711676e-02 0.000000e+00)
600           	verticalWall	(-3.973553e-02 -3.040973e-01 0.000000e+00)	(2.005374e+01 1.472833e+01 0.000000e+00)
600           	lowerWall	(-3.138326e+00 -1.083046e+01 0.000000e+00)	(4.864744e+02 4.504722e+01 0.000000e+00)
700           	lowerWallStartup	(-2.075353e+00 2.306385e-05 0.000000e+00)	(-3.572808e-01 1.285412e-01 0.000000e+00)
700           	upperWallStartup	(-9.369241e-01 -3.175832e-03 0.000000e+00)	(-8.456525e-03 2.216206e-03 0.000000e+00)
700           	upperWall	(-1.608548e+00 -3.860554e-03 0.000000e+00)	(-8.076014e-03 3.300516e-03 0.000000e+00)
700           	verticalWall	(-3.839970e-02 -3.025738e-01 0.000000e+00)	(5.150712e-02 5.596338e-02 0.000000e+00)
700           	lowerWall	(-2.450571e+00 -2.587163e+00 0.000000e+00)	(2.215617e+00 6.693367e-03 0.000000e+00)
800           	lowerWallStartup	(-2.084868e+00 2.294828e-05 0.000000e+00)	(-3.572753e-01 1.291766e-01 0.000000e+00)
800           	upperWallStartup	(-9.364593e-01 -3.180143e-03 0.000000e+00)	(-8.476506e-03 2.216110e-03 0.000000e+00)
800           	upperWall	(-9.427039e+00 -1.012764e-01 0.000000e+00)	(-1.118151e-02 3.290608e-03 0.000000e+00)
800           	verticalWall	(-3.918220e-02 -3.037036e-01 0.000000e+00)	(7.913024e-01 3.352075e+00 0.000000e+00)
800           	lowerWall	(-5.445383e+00 -1.018949e-01 0.000000e+00)	(1.462562e+00 1.145999e-01 0.000000e+00)
900           	lowerWallStartup	(-2.056221e+00 2.248153e-05 0.000000e+00)	(-3.572658e-01 1.276091e-01 0.000000e+00)
900           	upperWallStartup	(-9.366971e-01 -3.177830e-03 0.000000e+00)	(-8.530022e-03 2.216138e-03 0.000000e+00)
900           	upperWall	(-1.135258e+01 -1.213181e-01 0.000000e+00)	(-1.160787e-02 3.561914e-03 0.000000e+00)
900           	verticalWall	(-3.842706e-02 -2.998124e-01 0.000000e+00)	(1.249329e+02 5.979236e+01 0.000000e+00)
900           	lowerWall	(-1.608653e+00 -3.544109e-03 0.000000e+00)	(1.366082e+00 5.715871e-01 0.000000e+00)
1000          	lowerWallStartup	(-2.049436e+00 2.293286e-05 0.000000e+00)	(-3.573042e-01 1.274011e-01 0.000000e+00)
1000          	upperWallStartup	(-9.370582e-01 -3.175772e-03 0.000000e+00)	(-8.557552e-03 2.216162e-03 0.000000e+00)
1000          	upperWall	(-1.134205e+01 -1.221701e-01 0.000000e+00)	(-1.188939e-02 3.737715e-03 0.000000e+00)
1000          	verticalWall	(-3.833692e-02 -2.998333e-01 0.000000e+00)	(1.933027e+01 1.514864e+01 0.000000e+00)
1000          	lowerWall	(-1.533748e+00 -2.040224e-02 0.000000e+00)	(1.407311e+00 4.695978e-03 0.000000e+00)
1100          	lowerWallStartup	(-2.074483e+00 2.282545e-05 0.000000e+00)	(-3.572730e-01 1.289226e-01 0.000000e+00)
1100          	upperWallStartup	(-9.372057e-01 -3.175526e-03 0.000000e+00)	(-8.573204e-03 2.216170e-03 0.000000e+00)
1100          	upperWall	(-1.158109e+01 -1.251128e-01 0.000000e+00)	(-1.222551e-02 3.857618e-03 0.000000e+00)
1100          	verticalWall	(-3.869272e-02 -5.964841e-01 0.000000e+00)	(6.009847e-03 1.897321e-02 0.000000e+00)
1100          	lowerWall	(-1.485290e+00 -7.817703e-02 0.000000e+00)	(1.282662e+00 3.882789e-03 0.000000e+00)
1200          	lowerWallStartup	(-2.085619e+00 2.277501e-05 0.000000e+00)	(-3.572724e-01 1.295369e-01 0.000000e+00)
1200          	upperWallStartup	(-9.372502e-01 -3.175268e-03 0.000000e+00)	(-8.580125e-03 2.216179e-03 0.000000e+00)
1200          	upperWall	(-1.233810e+01 -1.333536e-01 0.000000e+00)	(-1.242178e-02 3.906812e-03 0.000000e+00)
1200          	verticalWall	(-9.852216e-01 -3.060352e-01 0.000000e+00)	(5.559880e-03 8.763985e+00 0.000000e+00)
1200          	lowerWall	(-1.455382e+00 -3.065775e-03 0.000000e+00)	(1.139457e+00 9.078801e-02 0.000000e+00)
1300          	lowerWallStartup	(-2.082998e+00 2.312110e-05 0.000000e+00)	(-3.573056e-01 1.294055e-01 0.000000e+00)
1300          	upperWallStartup	(-9.372331e-01 -3.173986e-03 0.000000e+00)	(-8.581470e-03 2.216093e-03 0.000000e+00)
1300          	upperWall	(-1.264894e+01 -1.366909e-01 0.000000e+00)	(-1.252942e-02 3.943199e-03 0.000000e+00)
1300          	verticalWall	(-3.589457e+01 -3.057978e-01 0.000000e+00)	(9.050079e-02 2.418149e+02 0.000000e+00)
1300          	lowerWall	(-1.446357e+00 -1.892845e-03 0.000000e+00)	(1.083848e+00 9.434157e-02 0.000000e+00)
1400          	lowerWallStartup	(-2.087938e+00 2.285384e-05 0.000000e+00)	(-3.572719e-01 1.297767e-01 0.000000e+00)
1400          	upperWallStartup	(-9.372184e-01 -3.175316e-03 0.000000e+00)	(-8.578683e-03 2.216153e-03 0.000000e+00)
1400          	upperWall	(-1.226442e+01 -1.788754e-02 0.000000e+00)	(-1.249798e-02 3.947511e-03 0.000000e+00)
1400          	verticalWall	(-3.988606e-02 -3.063893e-01 0.000000e+00)	(1.291840e+01 1.214726e+01 0.000000e+00)
1400          	lowerWall	(-1.390083e+00 -5.689968e+00 0.000000e+00)	(1.080800e+00 1.006611e-03 0.000000e+00)
1500          	lowerWallStartup	(-2.097720e+00 2.282959e-05 0.000000e+00)	(-3.572749e-01 1.302373e-01 0.000000e+00)
1500          	upperWallStartup	(-9.371669e-01 -3.175713e-03 0.000000e+00)	(-8.572702e-03 2.216161e-03 0.000000e+00)
1500          	upperWall	(-1.235584e+01 -3.532342e-03 0.000000e+00)	(-1.246210e-02 3.941821e-03 0.000000e+00)
1500          	verticalWall	(-4.061234e-02 -3.073765e-01 0.000000e+00)	(8.382845e-01 2.238826e+00 0.000000e+00)
1500          	lowerWall	(-1.294650e+00 -4.996555e-02 0.000000e+00)	(1.064598e+00 5.832314e-03 0.000000e+00)
1600          	lowerWallStartup	(-2.100452e+00 2.280491e-05 0.000000e+00)	(-3.572764e-01 1.304254e-01 0.000000e+00)
1600          	upperWallStartup	(-9.371095e-01 -3.175158e-03 0.000000e+00)	(-8.561563e-03 2.216108e-03 0.000000e+00)
1600          	upperWall	(-1.233467e+01 -3.518717e-03 0.000000e+00)	(-1.239955e-02 3.922862e-03 0.000000e+00)
1600          	verticalWall	(-5.278096e-02 -3.079252e-01 0.000000e+00)	(5.419863e-02 7.655580e-02 0.000000e+00)
1600          	lowerWall	(-1.230296e+00 -1.797339e-02 0.000000e+00)	(1.035061e+00 3.802225e-01 0.000000e+00)
1700          	lowerWallStartup	(-2.097473e+00 2.329569e-05 0.000000e+00)	(-3.573131e-01 1.303424e-01 0.000000e+00)
1700          	upperWallStartup	(-9.370416e-01 -3.175873e-03 0.000000e+00)	(-8.553871e-03 2.216066e-03 0.000000e+00)
1700          	upperWall	(-1.224098e+01 -3.498984e-03 0.000000e+00)	(-1.231330e-02 3.896250e-03 0.000000e+00)
1700          	verticalWall	(-4.091626e-02 -3.081252e-01 0.000000e+00)	(3.056787e-01 4.475427e-01 0.000000e+00)
1700          	lowerWall	(-1.199692e+00 -6.367868e-03 0.000000e+00)	(1.019465e+00 2.146609e+00 0.000000e+00)
1800          	lowerWallStartup	(-2.109372e+00 2.310299e-05 0.000000e+00)	(-3.572776e-01 1.309414e-01 0.000000e+00)
1800          	upperWallStartup	(-9.370055e-01 -3.176071e-03 0.000000e+00)	(-8.544803e-03 2.216127e-03 0.000000e+00)
1800          	upperWall	(-1.217566e+01 -3.467263e-03 0.000000e+00)	(-1.220164e-02 3.859065e-03 0.000000e+00)
1800          	verticalWall	(-4.093416e-02 -1.539256e+02 0.000000e+00)	(4.437701e+01 4.897907e+00 0.000000e+00)
1800          	lowerWall	(-7.397378e+01 -1.785274e+02 0.000000e+00)	(1.013300e+00 9.423474e-04 0.000000e+00)
1900          	lowerWallStartup	(-2.112550e+00 2.290221e-05 0.000000e+00)	(-3.572753e-01 1.310953e-01 0.000000e+00)
1900          	upperWallStartup	(-9.369497e-01 -3.176724e-03 0.000000e+00)	(-8.539980e-03 2.216148e-03 0.000000e+00)
1900          	upperWall	(-1.210188e+01 -3.437734e-03 0.000000e+00)	(-1.212691e-02 3.831652e-03 0.000000e+00)
1900          	verticalWall	(-4.067016e-02 -3.105805e-01 0.000000e+00)	(6.034389e-01 2.751831e+00 0.000000e+00)
1900          	lowerWall	(-1.177044e+00 -2.535867e-03 0.000000e+00)	(1.006080e+00 1.572188e-03 0.000000e+00)
2000          	lowerWallStartup	(-2.110796e+00 2.306460e-05 0.000000e+00)	(-3.573042e-01 1.310290e-01 0.000000e+00)
2000          	upperWallStartup	(-9.369410e-01 -3.177033e-03 0.000000e+00)	(-8.526232e-03 2.216141e-03 0.000000e+00)
2000          	upperWall	(-1.198906e+01 -3.402731e-03 0.000000e+00)	(-1.205994e-02 3.805157e-03 0.000000e+00)
2000          	verticalWall	(-4.061322e-02 -3.867680e-01 0.000000e+00)	(3.019900e+00 9.440405e+00 0.000000e+00)
2000          	lowerWall	(-1.173261e+00 -3.359115e-03 0.000000e+00)	(1.004293e+00 2.917645e-02 0.000000e+00)
