0.0131412 	-163.874 	20.4876 	-0.0103465 	0
0.0137126 	-163.862 	24.8892 	-0.0215921 	0
0.0142839 	-163.825 	28.2797 	-0.0217696 	0
0.0148553 	-163.774 	31.3598 	-0.0121433 	0
0.0154266 	-163.717 	33.5721 	-0.00596282 	0
0.015998 	-163.658 	34.7433 	-0.0125886 	0
0.0165693 	-163.591 	35.5825 	-0.0215772 	0
0.0171407 	-163.515 	36.2965 	-0.0304729 	0
0.0177121 	-163.429 	36.9287 	-0.0392841 	0
0.0182834 	-163.337 	37.5016 	-0.0479917 	0
0.0188548 	-163.237 	38.0157 	-0.0564371 	0
0.0194261 	-163.125 	38.4845 	-0.0648377 	0
0.0199975 	-163.012 	38.9334 	-0.0730832 	0
0.0205688 	-162.884 	39.3311 	-0.0811377 	0
0.0211402 	-162.754 	39.7225 	-0.0891361 	0
0.0217116 	-162.612 	40.0732 	-0.0968531 	0
0.0222829 	-162.472 	40.4239 	-0.104518 	0
0.0228543 	-162.313 	40.7361 	-0.111974 	0
0.0234256 	-162.158 	41.0458 	-0.119279 	0
0.023997 	-161.99 	41.3404 	-0.126547 	0
0.0245683 	-161.818 	41.6141 	-0.133455 	0
0.0251397 	-161.646 	41.8878 	-0.140362 	0
0.0257111 	-161.459 	42.1448 	-0.147138 	0
0.0262824 	-161.271 	42.3868 	-0.153558 	0
0.0268538 	-161.082 	42.6289 	-0.159979 	0
0.0274251 	-160.886 	42.8649 	-0.166358 	0
0.0279965 	-160.677 	43.0786 	-0.172347 	0
0.0285678 	-160.472 	43.2923 	-0.178281 	0
0.0291392 	-160.267 	43.5061 	-0.184216 	0
0.0297106 	-160.047 	43.699 	-0.189911 	0
0.0302819 	-159.825 	43.8627 	-0.195067 	0
0.0308533 	-159.604 	44.0265 	-0.200215 	0
0.0314246 	-159.382 	44.1902 	-0.205362 	0
0.031996 	-159.159 	44.3481 	-0.210457 	0
0.0325673 	-158.917 	44.4053 	-0.214583 	0
0.0331387 	-158.684 	44.4628 	-0.218663 	0
0.0337101 	-158.451 	44.5203 	-0.222743 	0
0.0342814 	-158.218 	44.5779 	-0.226824 	0
0.0348528 	-157.984 	44.6315 	-0.230852 	0
0.0354241 	-157.737 	44.6243 	-0.234066 	0
0.0359955 	-157.501 	44.6173 	-0.237271 	0
0.0365668 	-157.265 	44.6104 	-0.240475 	0
0.0371382 	-157.028 	44.6035 	-0.24368 	0
0.0377095 	-156.792 	44.5966 	-0.246885 	0
0.0382809 	-156.55 	44.5897 	-0.249851 	0
0.0388523 	-156.308 	44.5831 	-0.252366 	0
0.0394236 	-156.072 	44.5766 	-0.254892 	0
0.039995 	-155.836 	44.5701 	-0.257419 	0
0.0405663 	-155.6 	44.5636 	-0.259945 	0
0.0411377 	-155.364 	44.5571 	-0.262471 	0
0.041709 	-155.128 	44.5506 	-0.264998 	0
0.0422804 	-154.883 	44.5443 	-0.266945 	0
0.0428518 	-154.651 	44.5384 	-0.268793 	0
0.0434231 	-154.419 	44.5325 	-0.270642 	0
0.0439945 	-154.187 	44.5265 	-0.272491 	0
0.0445658 	-153.955 	44.5206 	-0.274341 	0
0.0451372 	-153.722 	44.5147 	-0.27619 	0
0.0457085 	-153.49 	44.5088 	-0.278039 	0
0.0462799 	-153.257 	44.5029 	-0.279687 	0
0.0468513 	-153.024 	44.4974 	-0.280753 	0
0.0474226 	-152.8 	44.492 	-0.281891 	0
0.047994 	-152.577 	44.4867 	-0.283029 	0
0.0485653 	-152.353 	44.4814 	-0.284167 	0
0.0491367 	-152.129 	44.476 	-0.285305 	0
0.049708 	-151.906 	44.4707 	-0.286443 	0
0.0502794 	-151.682 	44.4653 	-0.287581 	0
0.0508508 	-151.458 	44.46 	-0.288719 	0
0.0514221 	-151.235 	44.4549 	-0.289339 	0
0.0519935 	-151.019 	44.45 	-0.289718 	0
0.0525648 	-150.808 	44.4453 	-0.290155 	0
0.0531362 	-150.598 	44.4406 	-0.290592 	0
0.0537075 	-150.387 	44.4359 	-0.291028 	0
0.0542789 	-150.176 	44.4312 	-0.291465 	0
0.0548503 	-149.965 	44.4265 	-0.291902 	0
0.0554216 	-149.755 	44.4218 	-0.292338 	0
0.055993 	-149.544 	44.4171 	-0.292775 	0
0.0565643 	-149.333 	44.4124 	-0.293212 	0
0.0571357 	-149.132 	44.4082 	-0.293052 	0
0.057707 	-148.939 	44.4042 	-0.292749 	0
0.0582784 	-148.751 	44.4004 	-0.292518 	0
0.0588497 	-148.563 	44.3965 	-0.292287 	0
0.0594211 	-148.375 	44.3927 	-0.292055 	0
0.0599925 	-148.186 	44.3888 	-0.291824 	0
0.0605638 	-147.998 	44.385 	-0.291593 	0
0.0611352 	-147.81 	44.3811 	-0.291361 	0
0.0617065 	-147.622 	44.3772 	-0.29113 	0
0.0622779 	-147.434 	44.3734 	-0.290899 	0
0.0628492 	-147.246 	44.3695 	-0.290667 	0
0.0634206 	-147.062 	44.3659 	-0.290153 	0
0.063992 	-146.888 	44.3627 	-0.289221 	0
0.0645633 	-146.72 	44.3597 	-0.288422 	0
0.0651347 	-146.552 	44.3566 	-0.287623 	0
0.065706 	-146.384 	44.3536 	-0.286824 	0
0.0662774 	-146.217 	44.3505 	-0.286025 	0
0.0668487 	-146.049 	44.3475 	-0.285226 	0
0.0674201 	-145.881 	44.3444 	-0.284428 	0
0.0679915 	-145.713 	44.3413 	-0.283629 	0
0.0685628 	-145.545 	44.3383 	-0.28283 	0
0.0691342 	-145.377 	44.3352 	-0.282031 	0
0.0697055 	-145.21 	44.3322 	-0.281202 	0
0.0702769 	-145.052 	44.3298 	-0.279755 	0
0.0708482 	-144.901 	44.3275 	-0.278482 	0
0.0714196 	-144.749 	44.3252 	-0.27721 	0
0.071991 	-144.598 	44.3229 	-0.275938 	0
0.0725623 	-144.447 	44.3206 	-0.274665 	0
0.0731337 	-144.296 	44.3183 	-0.273393 	0
0.073705 	-144.144 	44.316 	-0.272121 	0
0.0742764 	-143.993 	44.3137 	-0.270848 	0
0.0748477 	-143.842 	44.3115 	-0.269576 	0
0.0754191 	-143.693 	44.3093 	-0.268224 	0
0.0759905 	-143.556 	44.3077 	-0.266487 	0
0.0765618 	-143.424 	44.3063 	-0.264884 	0
0.0771332 	-143.292 	44.3048 	-0.263282 	0
0.0777045 	-143.16 	44.3034 	-0.261679 	0
0.0782759 	-143.027 	44.3019 	-0.260076 	0
0.0788472 	-142.895 	44.3005 	-0.258473 	0
0.0794186 	-142.763 	44.299 	-0.25687 	0
0.0799899 	-142.631 	44.2975 	-0.255268 	0
0.0805613 	-142.505 	44.2965 	-0.253442 	0
0.0811327 	-142.388 	44.2958 	-0.251552 	0
0.081704 	-142.273 	44.2952 	-0.249708 	0
0.0822754 	-142.157 	44.2946 	-0.247864 	0
0.0828467 	-142.042 	44.294 	-0.246021 	0
0.0834181 	-141.926 	44.2934 	-0.244177 	0
0.0839894 	-141.811 	44.2928 	-0.242334 	0
0.0845608 	-141.696 	44.2922 	-0.240489 	0
0.0851322 	-141.592 	44.2925 	-0.238344 	0
0.0857035 	-141.492 	44.2928 	-0.236323 	0
0.0862749 	-141.391 	44.2931 	-0.234301 	0
0.0868462 	-141.29 	44.2934 	-0.23228 	0
0.0874176 	-141.19 	44.2937 	-0.230259 	0
0.0879889 	-141.089 	44.294 	-0.228238 	0
0.0885603 	-140.993 	44.2947 	-0.22608 	0
0.0891317 	-140.904 	44.296 	-0.223898 	0
0.089703 	-140.817 	44.2973 	-0.221746 	0
0.0902744 	-140.729 	44.2986 	-0.219594 	0
0.0908457 	-140.641 	44.2999 	-0.217442 	0
0.0914171 	-140.553 	44.3012 	-0.21529 	0
0.0919884 	-140.472 	44.3033 	-0.212973 	0
0.0925598 	-140.396 	44.3058 	-0.210723 	0
0.0931312 	-140.319 	44.3083 	-0.208474 	0
0.0937025 	-140.243 	44.3107 	-0.206224 	0
0.0942739 	-140.166 	44.3132 	-0.203974 	0
0.0948452 	-140.096 	44.3166 	-0.20159 	0
0.0954166 	-140.029 	44.3204 	-0.199269 	0
0.0959879 	-139.963 	44.3243 	-0.196947 	0
0.0965593 	-139.896 	44.3281 	-0.194626 	0
0.0971307 	-139.832 	44.3325 	-0.192219 	0
0.097702 	-139.774 	44.3379 	-0.189839 	0
0.0982734 	-139.716 	44.3433 	-0.187464 	0
0.0988447 	-139.658 	44.3487 	-0.18509 	0
0.0994161 	-139.603 	44.3552 	-0.182632 	0
0.0999874 	-139.553 	44.3625 	-0.180219 	0
0.100559 	-139.502 	44.3699 	-0.177807 	0
0.10113 	-139.453 	44.3777 	-0.175343 	0
0.101702 	-139.409 	44.3872 	-0.172895 	0
0.102273 	-139.365 	44.3967 	-0.170456 	0
0.102844 	-139.323 	44.4071 	-0.167963 	0
0.103416 	-139.284 	44.4192 	-0.165506 	0
0.103987 	-139.246 	44.4312 	-0.163049 	0
0.104558 	-139.212 	44.4455 	-0.160541 	0
0.10513 	-139.178 	44.4603 	-0.158073 	0
0.105701 	-139.147 	44.4769 	-0.155566 	0
0.106272 	-139.118 	44.4947 	-0.153092 	0
0.106844 	-139.092 	44.5147 	-0.150585 	0
0.107415 	-139.067 	44.5358 	-0.148101 	0
0.107986 	-139.044 	44.5599 	-0.145606 	0
0.108558 	-139.024 	44.586 	-0.143107 	0
0.109129 	-139.006 	44.6144 	-0.140616 	0
0.109701 	-138.989 	44.6456 	-0.138136 	0
0.110272 	-138.975 	44.6802 	-0.135644 	0
0.110843 	-138.963 	44.7016 	-0.133296 	0
0.111415 	-138.95 	44.375 	-0.126625 	0
0.111986 	-138.948 	41.9838 	-0.0905494 	0
0.112557 	-138.96 	37.9208 	-0.0484985 	0
0.113129 	-138.984 	32.5482 	-0.018244 	0
0.1137 	-139.005 	1.4679e-10 	-4.63517e-15 	0
