0 	-199.988 	0 	0 	0
0.000571357 	-199.878 	-5.80303 	0.124164 	0
0.00114271 	-199.727 	-5.6476 	0.230546 	0
0.00171407 	-199.636 	-5.30898 	0.324798 	0
0.00228543 	-199.601 	-4.90999 	0.40806 	0
0.00285678 	-199.615 	-4.47657 	0.481601 	0
0.00342814 	-199.669 	-4.01326 	0.544272 	0
0.0039995 	-199.751 	-3.5237 	0.595985 	0
0.00457085 	-199.853 	-3.00578 	0.635229 	0
0.00514221 	-199.964 	-2.45812 	0.6608 	0
0.00571357 	-200.072 	-1.87304 	0.670447 	0
0.00628492 	-200.162 	-1.2432 	0.662459 	0
0.00685628 	-200.21 	-0.553127 	0.634335 	0
0.00742764 	-200.183 	0.223994 	0.58351 	0
0.00799899 	-200.036 	1.1459 	0.506638 	0
0.00857035 	-199.826 	2.24799 	0.403244 	0
0.00914171 	-199.638 	3.67893 	0.255609 	0
0.00971307 	-199.417 	5.36568 	0.0692524 	0
0.0102844 	-198.945 	7.33159 	-0.142652 	0
0.0108558 	-198.276 	9.64376 	-0.360633 	0
0.0114271 	-197.547 	12.3103 	-0.568508 	0
0.0119985 	-196.781 	15.3359 	-0.756499 	0
0.0125698 	-196.111 	18.0873 	-0.891179 	0
0.0131412 	-195.07 	22.4299 	-1.02956 	0
0.0137126 	-194.11 	26.4103 	-1.08963 	0
0.0142839 	-193.136 	30.1623 	-1.11083 	0
0.0148553 	-192.206 	32.9918 	-1.14717 	0
0.0154266 	-191.23 	35.1079 	-1.19459 	0
0.015998 	-190.188 	36.3274 	-1.22732 	0
0.0165693 	-189.133 	37.0484 	-1.24898 	0
0.0171407 	-188.075 	37.6396 	-1.26655 	0
0.0177121 	-187.014 	38.1757 	-1.28184 	0
0.0182834 	-185.953 	38.6645 	-1.29517 	0
0.0188548 	-184.885 	39.1053 	-1.30623 	0
0.0194261 	-183.828 	39.5102 	-1.3158 	0
0.0199975 	-182.776 	39.8989 	-1.32474 	0
0.0205688 	-181.72 	40.2441 	-1.33129 	0
0.0211402 	-180.68 	40.5851 	-1.33795 	0
0.0217116 	-179.638 	40.8908 	-1.34259 	0
0.0222829 	-178.608 	41.1974 	-1.34758 	0
0.0228543 	-177.585 	41.4707 	-1.35055 	0
0.0234256 	-176.562 	41.7416 	-1.35335 	0
0.023997 	-175.562 	42.0006 	-1.35595 	0
0.0245683 	-174.562 	42.2409 	-1.35719 	0
0.0251397 	-173.567 	42.4814 	-1.35858 	0
0.0257111 	-172.591 	42.7079 	-1.35936 	0
0.0262824 	-171.619 	42.9211 	-1.35908 	0
0.0268538 	-170.647 	43.1342 	-1.3588 	0
0.0274251 	-169.695 	43.3417 	-1.35877 	0
0.0279965 	-168.756 	43.5248 	-1.35719 	0
0.0285678 	-167.818 	43.708 	-1.35561 	0
0.0291392 	-166.884 	43.8914 	-1.35423 	0
0.0297106 	-165.97 	44.0503 	-1.35198 	0
0.0302819 	-165.07 	44.1729 	-1.34783 	0
0.0308533 	-164.17 	44.2955 	-1.34368 	0
0.0314246 	-163.271 	44.4182 	-1.33957 	0
0.031996 	-162.385 	44.5366 	-1.33585 	0
0.0325673 	-161.544 	44.5586 	-1.32817 	0
0.0331387 	-160.703 	44.5806 	-1.32049 	0
0.0337101 	-159.862 	44.6026 	-1.31281 	0
0.0342814 	-159.023 	44.6248 	-1.30528 	0
0.0348528 	-158.194 	44.645 	-1.29814 	0
0.0354241 	-157.433 	44.6211 	-1.28895 	0
0.0359955 	-156.672 	44.5972 	-1.27976 	0
0.0365668 	-155.911 	44.5733 	-1.27058 	0
0.0371382 	-155.15 	44.5494 	-1.26139 	0
0.0377095 	-154.392 	44.5257 	-1.25262 	0
0.0382809 	-153.661 	44.5047 	-1.24384 	0
0.0388523 	-152.98 	44.4888 	-1.23463 	0
0.0394236 	-152.299 	44.4729 	-1.22541 	0
0.039995 	-151.618 	44.4571 	-1.2162 	0
0.0405663 	-150.936 	44.4412 	-1.20699 	0
0.0411377 	-150.256 	44.4253 	-1.19794 	0
0.041709 	-149.578 	44.4095 	-1.18927 	0
0.0422804 	-148.959 	44.3951 	-1.18015 	0
0.0428518 	-148.357 	44.3811 	-1.17089 	0
0.0434231 	-147.756 	44.3672 	-1.16163 	0
0.0439945 	-147.155 	44.3532 	-1.15238 	0
0.0445658 	-146.553 	44.3393 	-1.14312 	0
0.0451372 	-145.952 	44.3254 	-1.13386 	0
0.0457085 	-145.352 	44.3114 	-1.12508 	0
0.0462799 	-144.771 	44.298 	-1.11619 	0
0.0468513 	-144.25 	44.2862 	-1.10694 	0
0.0474226 	-143.728 	44.2744 	-1.09769 	0
0.047994 	-143.206 	44.2626 	-1.08844 	0
0.0485653 	-142.684 	44.2507 	-1.07919 	0
0.0491367 	-142.163 	44.2389 	-1.06994 	0
0.049708 	-141.641 	44.2271 	-1.0607 	0
0.0502794 	-141.119 	44.2153 	-1.05171 	0
0.0508508 	-140.598 	44.2034 	-1.04287 	0
0.0514221 	-140.124 	44.1929 	-1.03385 	0
0.0519935 	-139.68 	44.1831 	-1.02472 	0
0.0525648 	-139.236 	44.1734 	-1.01558 	0
0.0531362 	-138.792 	44.1636 	-1.00645 	0
0.0537075 	-138.348 	44.1538 	-0.997313 	0
0.0542789 	-137.904 	44.1441 	-0.988178 	0
0.0548503 	-137.46 	44.1343 	-0.979043 	0
0.0554216 	-137.016 	44.1246 	-0.969918 	0
0.055993 	-136.572 	44.1148 	-0.961136 	0
0.0565643 	-136.127 	44.105 	-0.952354 	0
0.0571357 	-135.744 	44.0968 	-0.94359 	0
0.057707 	-135.383 	44.0892 	-0.934833 	0
0.0582784 	-135.022 	44.0816 	-0.926076 	0
0.0588497 	-134.662 	44.0741 	-0.917319 	0
0.0594211 	-134.301 	44.0665 	-0.908562 	0
0.0599925 	-133.941 	44.0589 	-0.899805 	0
0.0605638 	-133.58 	44.0513 	-0.891048 	0
0.0611352 	-133.22 	44.0437 	-0.88229 	0
0.0617065 	-132.859 	44.0361 	-0.87354 	0
0.0622779 	-132.497 	44.0285 	-0.865074 	0
0.0628492 	-132.136 	44.0209 	-0.856608 	0
0.0634206 	-131.799 	44.014 	-0.848102 	0
0.063992 	-131.502 	44.0081 	-0.839534 	0
0.0645633 	-131.205 	44.0023 	-0.830965 	0
0.0651347 	-130.909 	43.9965 	-0.822396 	0
0.065706 	-130.612 	43.9906 	-0.813827 	0
0.0662774 	-130.315 	43.9848 	-0.805258 	0
0.0668487 	-130.018 	43.979 	-0.796689 	0
0.0674201 	-129.721 	43.9731 	-0.78812 	0
0.0679915 	-129.424 	43.9673 	-0.779551 	0
0.0685628 	-129.126 	43.9615 	-0.771151 	0
0.0691342 	-128.828 	43.9556 	-0.762829 	0
0.0697055 	-128.532 	43.9498 	-0.754493 	0
0.0702769 	-128.28 	43.9454 	-0.745877 	0
0.0708482 	-128.029 	43.9409 	-0.737261 	0
0.0714196 	-127.777 	43.9365 	-0.728645 	0
0.071991 	-127.525 	43.9321 	-0.720029 	0
0.0725623 	-127.274 	43.9276 	-0.711413 	0
0.0731337 	-127.022 	43.9232 	-0.702797 	0
0.073705 	-126.771 	43.9188 	-0.69418 	0
0.0742764 	-126.518 	43.9143 	-0.685665 	0
0.0748477 	-126.266 	43.9098 	-0.677268 	0
0.0754191 	-126.019 	43.9056 	-0.668861 	0
0.0759905 	-125.809 	43.9025 	-0.660396 	0
0.0765618 	-125.598 	43.8994 	-0.65193 	0
0.0771332 	-125.387 	43.8962 	-0.643465 	0
0.0777045 	-125.177 	43.8931 	-0.634999 	0
0.0782759 	-124.966 	43.89 	-0.626534 	0
0.0788472 	-124.755 	43.8869 	-0.618068 	0
0.0794186 	-124.544 	43.8838 	-0.609708 	0
0.0799899 	-124.332 	43.8806 	-0.601438 	0
0.0805613 	-124.138 	43.8781 	-0.593125 	0
0.0811327 	-123.96 	43.8762 	-0.584772 	0
0.081704 	-123.781 	43.8743 	-0.576419 	0
0.0822754 	-123.603 	43.8724 	-0.568067 	0
0.0828467 	-123.425 	43.8705 	-0.559714 	0
0.0834181 	-123.246 	43.8686 	-0.551361 	0
0.0839894 	-123.067 	43.8667 	-0.543143 	0
0.0845608 	-122.888 	43.8647 	-0.53497 	0
0.0851322 	-122.736 	43.864 	-0.526712 	0
0.0857035 	-122.583 	43.8633 	-0.518454 	0
0.0862749 	-122.431 	43.8625 	-0.510197 	0
0.0868462 	-122.279 	43.8618 	-0.501939 	0
0.0874176 	-122.126 	43.861 	-0.493682 	0
0.0879889 	-121.973 	43.8603 	-0.485585 	0
0.0885603 	-121.83 	43.8601 	-0.477453 	0
0.0891317 	-121.699 	43.8605 	-0.469267 	0
0.089703 	-121.568 	43.861 	-0.461081 	0
0.0902744 	-121.437 	43.8615 	-0.452895 	0
0.0908457 	-121.306 	43.862 	-0.444716 	0
0.0914171 	-121.174 	43.8624 	-0.436688 	0
0.0919884 	-121.056 	43.8638 	-0.428591 	0
0.0925598 	-120.942 	43.8656 	-0.420465 	0
0.0931312 	-120.829 	43.8674 	-0.41234 	0
0.0937025 	-120.716 	43.8692 	-0.404215 	0
0.0942739 	-120.602 	43.871 	-0.396223 	0
0.0948452 	-120.499 	43.8739 	-0.388175 	0
0.0954166 	-120.401 	43.8772 	-0.380097 	0
0.0959879 	-120.302 	43.8805 	-0.37202 	0
0.0965593 	-120.204 	43.8838 	-0.363998 	0
0.0971307 	-120.11 	43.8878 	-0.356029 	0
0.097702 	-120.024 	43.8928 	-0.347992 	0
0.0982734 	-119.938 	43.8979 	-0.339956 	0
0.0988447 	-119.852 	43.9029 	-0.331983 	0
0.0994161 	-119.772 	43.9091 	-0.32403 	0
0.0999874 	-119.697 	43.9162 	-0.31603 	0
0.100559 	-119.622 	43.9233 	-0.308034 	0
0.10113 	-119.549 	43.9309 	-0.300146 	0
0.101702 	-119.483 	43.9404 	-0.292173 	0
0.102273 	-119.417 	43.9498 	-0.284205 	0
0.102844 	-119.353 	43.9601 	-0.276334 	0
0.103416 	-119.295 	43.9721 	-0.268399 	0
0.103987 	-119.237 	43.9842 	-0.260521 	0
0.104558 	-119.185 	43.9986 	-0.252617 	0
0.10513 	-119.134 	44.0135 	-0.244713 	0
0.105701 	-119.086 	44.0305 	-0.236865 	0
0.106272 	-119.041 	44.0485 	-0.229008 	0
0.106844 	-118.999 	44.0689 	-0.221166 	0
0.107415 	-118.959 	44.0903 	-0.213339 	0
0.107986 	-118.923 	44.115 	-0.205485 	0
0.108558 	-118.89 	44.1417 	-0.197721 	0
0.109129 	-118.859 	44.1709 	-0.189928 	0
0.109701 	-118.83 	44.1955 	-0.182124 	0
0.110272 	-118.804 	44.1032 	-0.173364 	0
0.110843 	-118.777 	43.3354 	-0.153913 	0
0.111415 	-118.762 	41.3442 	-0.117081 	0
0.111986 	-118.757 	38.4584 	-0.0783151 	0
0.112557 	-118.764 	35.1223 	-0.0455413 	0
0.113129 	-118.784 	30.4968 	-0.0191599 	0
0.1137 	-118.806 	1.4008e-10 	-5.20831e-15 	0
