0 	-197.962 	0 	0 	0
0.000571357 	-197.88 	-6.75809 	0.0681231 	0
0.00114271 	-197.781 	-6.46617 	0.12082 	0
0.00171407 	-197.728 	-6.0285 	0.165852 	0
0.00228543 	-197.721 	-5.53608 	0.203518 	0
0.00285678 	-197.752 	-5.00514 	0.234245 	0
0.00342814 	-197.814 	-4.43612 	0.256832 	0
0.0039995 	-197.9 	-3.82893 	0.270839 	0
0.00457085 	-197.999 	-3.17859 	0.274692 	0
0.00514221 	-198.101 	-2.48132 	0.267558 	0
0.00571357 	-198.192 	-1.72663 	0.247267 	0
0.00628492 	-198.257 	-0.905498 	0.21274 	0
0.00685628 	-198.276 	-0.00289368 	0.162486 	0
0.00742764 	-198.225 	1.00359 	0.0952245 	0
0.00799899 	-198.076 	2.19747 	0.00569828 	0
0.00857035 	-197.835 	3.65732 	-0.109021 	0
0.00914171 	-197.544 	5.46478 	-0.253873 	0
0.00971307 	-197.299 	7.46881 	-0.41988 	0
0.0102844 	-197.033 	9.57916 	-0.600847 	0
0.0108558 	-196.52 	11.8307 	-0.783375 	0
0.0114271 	-195.777 	14.3212 	-0.958444 	0
0.0119985 	-194.931 	17.0889 	-1.11511 	0
0.0125698 	-194.19 	19.5664 	-1.22773 	0
0.0131412 	-193.056 	23.4085 	-1.35278 	0
0.0137126 	-192.02 	26.932 	-1.42406 	0
0.0142839 	-190.93 	30.4801 	-1.46628 	0
0.0148553 	-189.831 	33.5139 	-1.50832 	0
0.0154266 	-188.683 	35.5764 	-1.55749 	0
0.015998 	-187.479 	36.5977 	-1.5843 	0
0.0165693 	-186.274 	37.2341 	-1.59884 	0
0.0171407 	-185.069 	37.7929 	-1.61032 	0
0.0177121 	-183.868 	38.3041 	-1.61965 	0
0.0182834 	-182.673 	38.7702 	-1.62696 	0
0.0188548 	-181.482 	39.193 	-1.63204 	0
0.0194261 	-180.305 	39.5825 	-1.63589 	0
0.0199975 	-179.134 	39.9569 	-1.63911 	0
0.0205688 	-177.979 	40.2909 	-1.6401 	0
0.0211402 	-176.83 	40.6207 	-1.64128 	0
0.0217116 	-175.701 	40.9176 	-1.64063 	0
0.0222829 	-174.574 	41.2151 	-1.64034 	0
0.0228543 	-173.473 	41.4813 	-1.63832 	0
0.0234256 	-172.374 	41.7454 	-1.63613 	0
0.023997 	-171.293 	41.9979 	-1.6339 	0
0.0245683 	-170.23 	42.2329 	-1.63049 	0
0.0251397 	-169.167 	42.4678 	-1.62708 	0
0.0257111 	-168.128 	42.6896 	-1.62355 	0
0.0262824 	-167.105 	42.8985 	-1.61897 	0
0.0268538 	-166.082 	43.1074 	-1.61439 	0
0.0274251 	-165.072 	43.3102 	-1.61011 	0
0.0279965 	-164.095 	43.4881 	-1.60451 	0
0.0285678 	-163.118 	43.6659 	-1.59891 	0
0.0291392 	-162.142 	43.8439 	-1.59334 	0
0.0297106 	-161.188 	43.9965 	-1.58722 	0
0.0302819 	-160.262 	44.1114 	-1.57908 	0
0.0308533 	-159.336 	44.2263 	-1.57093 	0
0.0314246 	-158.41 	44.3412 	-1.56279 	0
0.031996 	-157.488 	44.4519 	-1.55507 	0
0.0325673 	-156.633 	44.4682 	-1.54343 	0
0.0331387 	-155.778 	44.4845 	-1.5318 	0
0.0337101 	-154.922 	44.5008 	-1.52016 	0
0.0342814 	-154.067 	44.5171 	-1.50853 	0
0.0348528 	-153.216 	44.5319 	-1.49752 	0
0.0354241 	-152.451 	44.5069 	-1.48477 	0
0.0359955 	-151.685 	44.4819 	-1.47203 	0
0.0365668 	-150.919 	44.4569 	-1.45929 	0
0.0371382 	-150.153 	44.4319 	-1.44654 	0
0.0377095 	-149.387 	44.4069 	-1.434 	0
0.0382809 	-148.648 	44.3852 	-1.42192 	0
0.0388523 	-147.969 	44.3696 	-1.40965 	0
0.0394236 	-147.29 	44.3541 	-1.39738 	0
0.039995 	-146.611 	44.3385 	-1.38511 	0
0.0405663 	-145.931 	44.3229 	-1.37284 	0
0.0411377 	-145.252 	44.3074 	-1.36057 	0
0.041709 	-144.57 	44.2917 	-1.34884 	0
0.0422804 	-143.956 	44.2775 	-1.33701 	0
0.0428518 	-143.362 	44.2638 	-1.32511 	0
0.0434231 	-142.768 	44.2501 	-1.31321 	0
0.0439945 	-142.173 	44.2364 	-1.3013 	0
0.0445658 	-141.579 	44.2227 	-1.2894 	0
0.0451372 	-140.985 	44.209 	-1.2775 	0
0.0457085 	-140.389 	44.1953 	-1.26586 	0
0.0462799 	-139.812 	44.1821 	-1.25448 	0
0.0468513 	-139.301 	44.1705 	-1.24297 	0
0.0474226 	-138.789 	44.159 	-1.23146 	0
0.047994 	-138.278 	44.1475 	-1.21996 	0
0.0485653 	-137.767 	44.136 	-1.20845 	0
0.0491367 	-137.255 	44.1245 	-1.19695 	0
0.049708 	-136.744 	44.113 	-1.18544 	0
0.0502794 	-136.232 	44.1014 	-1.17394 	0
0.0508508 	-135.717 	44.0898 	-1.16291 	0
0.0514221 	-135.253 	44.0796 	-1.15187 	0
0.0519935 	-134.821 	44.0701 	-1.14084 	0
0.0525648 	-134.389 	44.0607 	-1.1298 	0
0.0531362 	-133.957 	44.0513 	-1.11876 	0
0.0537075 	-133.525 	44.0418 	-1.10773 	0
0.0542789 	-133.093 	44.0324 	-1.09669 	0
0.0548503 	-132.661 	44.023 	-1.08565 	0
0.0554216 	-132.229 	44.0135 	-1.07461 	0
0.055993 	-131.796 	44.0041 	-1.0637 	0
0.0565643 	-131.36 	43.9945 	-1.05306 	0
0.0571357 	-130.988 	43.9866 	-1.04267 	0
0.057707 	-130.639 	43.9794 	-1.03236 	0
0.0582784 	-130.291 	43.9721 	-1.02205 	0
0.0588497 	-129.942 	43.9648 	-1.01174 	0
0.0594211 	-129.594 	43.9576 	-1.00143 	0
0.0599925 	-129.245 	43.9503 	-0.991127 	0
0.0605638 	-128.897 	43.943 	-0.98082 	0
0.0611352 	-128.548 	43.9358 	-0.970512 	0
0.0617065 	-128.2 	43.9285 	-0.960204 	0
0.0622779 	-127.85 	43.9212 	-0.949965 	0
0.0628492 	-127.498 	43.9138 	-0.939979 	0
0.0634206 	-127.172 	43.9072 	-0.930036 	0
0.063992 	-126.886 	43.9016 	-0.920162 	0
0.0645633 	-126.601 	43.8961 	-0.910288 	0
0.0651347 	-126.315 	43.8906 	-0.900414 	0
0.065706 	-126.03 	43.885 	-0.89054 	0
0.0662774 	-125.744 	43.8795 	-0.880666 	0
0.0668487 	-125.459 	43.8739 	-0.870792 	0
0.0674201 	-125.173 	43.8684 	-0.860918 	0
0.0679915 	-124.888 	43.8629 	-0.851044 	0
0.0685628 	-124.602 	43.8573 	-0.84117 	0
0.0691342 	-124.314 	43.8517 	-0.831531 	0
0.0697055 	-124.028 	43.8462 	-0.821919 	0
0.0702769 	-123.787 	43.842 	-0.812148 	0
0.0708482 	-123.546 	43.8378 	-0.802377 	0
0.0714196 	-123.305 	43.8337 	-0.792605 	0
0.071991 	-123.064 	43.8295 	-0.782834 	0
0.0725623 	-122.823 	43.8253 	-0.773063 	0
0.0731337 	-122.582 	43.8212 	-0.763292 	0
0.073705 	-122.341 	43.817 	-0.753521 	0
0.0742764 	-122.1 	43.8128 	-0.743749 	0
0.0748477 	-121.857 	43.8086 	-0.734156 	0
0.0754191 	-121.619 	43.8046 	-0.724629 	0
0.0759905 	-121.418 	43.8017 	-0.715138 	0
0.0765618 	-121.217 	43.7989 	-0.705647 	0
0.0771332 	-121.016 	43.796 	-0.696156 	0
0.0777045 	-120.814 	43.7931 	-0.686665 	0
0.0782759 	-120.613 	43.7902 	-0.677174 	0
0.0788472 	-120.412 	43.7874 	-0.667683 	0
0.0794186 	-120.211 	43.7845 	-0.658192 	0
0.0799899 	-120.007 	43.7816 	-0.648894 	0
0.0805613 	-119.821 	43.7793 	-0.63961 	0
0.0811327 	-119.651 	43.7776 	-0.630323 	0
0.081704 	-119.481 	43.7759 	-0.621035 	0
0.0822754 	-119.311 	43.7742 	-0.611748 	0
0.0828467 	-119.141 	43.7725 	-0.602461 	0
0.0834181 	-118.971 	43.7708 	-0.593174 	0
0.0839894 	-118.801 	43.7691 	-0.583927 	0
0.0845608 	-118.629 	43.7674 	-0.574831 	0
0.0851322 	-118.484 	43.7668 	-0.565705 	0
0.0857035 	-118.339 	43.7663 	-0.55658 	0
0.0862749 	-118.194 	43.7657 	-0.547455 	0
0.0868462 	-118.049 	43.7652 	-0.538329 	0
0.0874176 	-117.904 	43.7646 	-0.529204 	0
0.0879889 	-117.758 	43.764 	-0.520166 	0
0.0885603 	-117.621 	43.764 	-0.511193 	0
0.0891317 	-117.496 	43.7646 	-0.502187 	0
0.089703 	-117.372 	43.7653 	-0.493181 	0
0.0902744 	-117.247 	43.7659 	-0.484176 	0
0.0908457 	-117.122 	43.7666 	-0.47517 	0
0.0914171 	-116.997 	43.7672 	-0.466271 	0
0.0919884 	-116.884 	43.7688 	-0.457382 	0
0.0925598 	-116.776 	43.7707 	-0.448474 	0
0.0931312 	-116.668 	43.7727 	-0.439565 	0
0.0937025 	-116.561 	43.7747 	-0.430657 	0
0.0942739 	-116.452 	43.7766 	-0.421832 	0
0.0948452 	-116.354 	43.7796 	-0.413023 	0
0.0954166 	-116.261 	43.7831 	-0.40419 	0
0.0959879 	-116.167 	43.7865 	-0.395357 	0
0.0965593 	-116.074 	43.79 	-0.386534 	0
0.0971307 	-115.984 	43.7941 	-0.377821 	0
0.097702 	-115.902 	43.7993 	-0.369049 	0
0.0982734 	-115.821 	43.8045 	-0.360277 	0
0.0988447 	-115.739 	43.8097 	-0.351532 	0
0.0994161 	-115.663 	43.816 	-0.342855 	0
0.0999874 	-115.591 	43.8232 	-0.334138 	0
0.100559 	-115.52 	43.8304 	-0.32542 	0
0.10113 	-115.45 	43.8382 	-0.31679 	0
0.101702 	-115.387 	43.8478 	-0.30811 	0
0.102273 	-115.325 	43.8573 	-0.299431 	0
0.102844 	-115.264 	43.8678 	-0.290836 	0
0.103416 	-115.209 	43.88 	-0.282203 	0
0.103987 	-115.153 	43.8921 	-0.273605 	0
0.104558 	-115.104 	43.9067 	-0.265014 	0
0.10513 	-115.055 	43.9218 	-0.256403 	0
0.105701 	-115.009 	43.9389 	-0.247867 	0
0.106272 	-114.966 	43.957 	-0.239301 	0
0.106844 	-114.926 	43.9776 	-0.230792 	0
0.107415 	-114.888 	43.9992 	-0.222287 	0
0.107986 	-114.853 	44.024 	-0.213725 	0
0.108558 	-114.821 	44.0509 	-0.205287 	0
0.109129 	-114.791 	44.08 	-0.196846 	0
0.109701 	-114.764 	44.0969 	-0.188283 	0
0.110272 	-114.738 	43.9397 	-0.17798 	0
0.110843 	-114.712 	42.9945 	-0.155076 	0
0.111415 	-114.697 	40.8977 	-0.116524 	0
0.111986 	-114.692 	38.058 	-0.0781453 	0
0.112557 	-114.701 	34.7962 	-0.0458401 	0
0.113129 	-114.721 	30.2314 	-0.0193842 	0
0.1137 	-114.743 	1.32314e-10 	-5.00082e-15 	0
