0 	11.5447 	0 	0 	0
0.000571357 	11.432 	11.7802 	-0.0421836 	0
0.00114271 	11.2088 	12.8209 	-0.100588 	0
0.00171407 	10.9811 	13.533 	-0.160788 	0
0.00228543 	10.7737 	14.1683 	-0.220876 	0
0.00285678 	10.5901 	14.7904 	-0.280506 	0
0.00342814 	10.4306 	15.4251 	-0.338935 	0
0.0039995 	10.2902 	16.0871 	-0.396065 	0
0.00457085 	10.1652 	16.7842 	-0.451189 	0
0.00514221 	10.0495 	17.5261 	-0.504651 	0
0.00571357 	9.94032 	18.3132 	-0.555381 	0
0.00628492 	9.83291 	19.1495 	-0.603459 	0
0.00685628 	9.72404 	20.0364 	-0.648592 	0
0.00742764 	9.61044 	20.9724 	-0.690359 	0
0.00799899 	9.49328 	21.9614 	-0.728336 	0
0.00857035 	9.39371 	23.0121 	-0.762469 	0
0.00914171 	9.30384 	24.1579 	-0.790535 	0
0.00971307 	9.18592 	25.3899 	-0.813264 	0
0.0102844 	9.021 	26.6784 	-0.830983 	0
0.0108558 	8.82451 	27.9499 	-0.844448 	0
0.0114271 	8.60866 	29.1823 	-0.855001 	0
0.0119985 	8.38637 	30.3999 	-0.862603 	0
0.0125698 	8.19953 	31.4315 	-0.866389 	0
0.0131412 	7.91397 	33.0034 	-0.865586 	0
0.0137126 	7.64999 	34.5096 	-0.857273 	0
0.0142839 	7.33976 	35.5874 	-0.853099 	0
0.0148553 	7.00414 	35.9634 	-0.859971 	0
0.0154266 	6.6611 	36.3002 	-0.866987 	0
0.015998 	6.31744 	36.6235 	-0.873597 	0
0.0165693 	5.96958 	36.9344 	-0.879819 	0
0.0171407 	5.61758 	37.2327 	-0.885629 	0
0.0177121 	5.26161 	37.5204 	-0.891082 	0
0.0182834 	4.902 	37.7997 	-0.896252 	0
0.0188548 	4.54863 	38.0685 	-0.901072 	0
0.0194261 	4.18216 	38.3279 	-0.905536 	0
0.0199975 	3.81306 	38.5828 	-0.909821 	0
0.0205688 	3.45246 	38.8229 	-0.913653 	0
0.0211402 	3.07788 	39.0619 	-0.917373 	0
0.0217116 	2.7138 	39.2854 	-0.920646 	0
0.0222829 	2.33798 	39.51 	-0.923873 	0
0.0228543 	1.96755 	39.712 	-0.926434 	0
0.0234256 	1.60047 	39.9123 	-0.92896 	0
0.023997 	1.21536 	40.0999 	-0.930981 	0
0.0245683 	0.84632 	40.2654 	-0.932516 	0
0.0251397 	0.477283 	40.431 	-0.93405 	0
0.0257111 	0.0891839 	40.5724 	-0.934674 	0
0.0262824 	-0.279409 	40.6873 	-0.934749 	0
0.0268538 	-0.648002 	40.8023 	-0.934824 	0
0.0274251 	-1.0371 	40.9071 	-0.934304 	0
0.0279965 	-1.4012 	40.9595 	-0.932659 	0
0.0285678 	-1.7653 	41.0119 	-0.931013 	0
0.0291392 	-2.1294 	41.0642 	-0.929368 	0
0.0297106 	-2.51272 	41.0983 	-0.926662 	0
0.0302819 	-2.86631 	41.0983 	-0.923368 	0
0.0308533 	-3.2199 	41.0982 	-0.920073 	0
0.0314246 	-3.57349 	41.0982 	-0.916778 	0
0.031996 	-3.95144 	41.0996 	-0.912859 	0
0.0325673 	-4.28941 	41.0866 	-0.909002 	0
0.0331387 	-4.62738 	41.0736 	-0.905146 	0
0.0337101 	-4.96535 	41.0606 	-0.90129 	0
0.0342814 	-5.30331 	41.0477 	-0.897433 	0
0.0348528 	-5.66659 	41.0364 	-0.892838 	0
0.0354241 	-5.98865 	41.0433 	-0.889279 	0
0.0359955 	-6.31071 	41.0501 	-0.88572 	0
0.0365668 	-6.63277 	41.057 	-0.882161 	0
0.0371382 	-6.95484 	41.0639 	-0.878602 	0
0.0377095 	-7.2793 	41.0708 	-0.874971 	0
0.0382809 	-7.62035 	41.0792 	-0.870529 	0
0.0388523 	-7.92607 	41.0902 	-0.866556 	0
0.0394236 	-8.23179 	41.1013 	-0.862583 	0
0.039995 	-8.53752 	41.1123 	-0.85861 	0
0.0405663 	-8.84324 	41.1233 	-0.854637 	0
0.0411377 	-9.14896 	41.1343 	-0.850664 	0
0.041709 	-9.47441 	41.1458 	-0.846035 	0
0.0422804 	-9.77195 	41.1527 	-0.841434 	0
0.0428518 	-10.0575 	41.158 	-0.836966 	0
0.0434231 	-10.343 	41.1634 	-0.832498 	0
0.0439945 	-10.6285 	41.1688 	-0.828029 	0
0.0445658 	-10.914 	41.1742 	-0.823561 	0
0.0451372 	-11.1995 	41.1795 	-0.819093 	0
0.0457085 	-11.4907 	41.1851 	-0.814403 	0
0.0462799 	-11.7917 	41.1913 	-0.809053 	0
0.0468513 	-12.0546 	41.198 	-0.80432 	0
0.0474226 	-12.3175 	41.2047 	-0.799587 	0
0.047994 	-12.5804 	41.2114 	-0.794855 	0
0.0485653 	-12.8433 	41.2181 	-0.790122 	0
0.0491367 	-13.1062 	41.2248 	-0.78539 	0
0.049708 	-13.3691 	41.2315 	-0.780657 	0
0.0502794 	-13.632 	41.2381 	-0.775924 	0
0.0508508 	-13.9116 	41.2452 	-0.770438 	0
0.0514221 	-14.1678 	41.2518 	-0.765058 	0
0.0519935 	-14.4057 	41.2579 	-0.759926 	0
0.0525648 	-14.6435 	41.264 	-0.754795 	0
0.0531362 	-14.8813 	41.2702 	-0.749664 	0
0.0537075 	-15.1191 	41.2763 	-0.744533 	0
0.0542789 	-15.357 	41.2824 	-0.739402 	0
0.0548503 	-15.5948 	41.2885 	-0.734271 	0
0.0554216 	-15.8326 	41.2947 	-0.729139 	0
0.055993 	-16.0705 	41.3008 	-0.724008 	0
0.0565643 	-16.3268 	41.3074 	-0.71788 	0
0.0571357 	-16.5452 	41.3133 	-0.712377 	0
0.057707 	-16.7494 	41.3189 	-0.707112 	0
0.0582784 	-16.9536 	41.3245 	-0.701848 	0
0.0588497 	-17.1577 	41.3301 	-0.696584 	0
0.0594211 	-17.3619 	41.3357 	-0.69132 	0
0.0599925 	-17.5661 	41.3413 	-0.686055 	0
0.0605638 	-17.7702 	41.3469 	-0.680791 	0
0.0611352 	-17.9744 	41.3526 	-0.675527 	0
0.0617065 	-18.1786 	41.3582 	-0.670263 	0
0.0622779 	-18.3827 	41.3638 	-0.664998 	0
0.0628492 	-18.5986 	41.3697 	-0.658957 	0
0.0634206 	-18.8011 	41.3754 	-0.653023 	0
0.063992 	-18.9786 	41.3807 	-0.647512 	0
0.0645633 	-19.1561 	41.386 	-0.642001 	0
0.0651347 	-19.3337 	41.3912 	-0.63649 	0
0.065706 	-19.5112 	41.3965 	-0.630979 	0
0.0662774 	-19.6887 	41.4018 	-0.625468 	0
0.0668487 	-19.8662 	41.4071 	-0.619957 	0
0.0674201 	-20.0437 	41.4124 	-0.614446 	0
0.0679915 	-20.2212 	41.4177 	-0.608935 	0
0.0685628 	-20.3987 	41.423 	-0.603424 	0
0.0691342 	-20.5815 	41.4284 	-0.59748 	0
0.0697055 	-20.7682 	41.4339 	-0.591114 	0
0.0702769 	-20.926 	41.4391 	-0.585248 	0
0.0708482 	-21.0838 	41.4444 	-0.579382 	0
0.0714196 	-21.2417 	41.4496 	-0.573516 	0
0.071991 	-21.3995 	41.4548 	-0.56765 	0
0.0725623 	-21.5573 	41.46 	-0.561785 	0
0.0731337 	-21.7152 	41.4652 	-0.555919 	0
0.073705 	-21.873 	41.4704 	-0.550053 	0
0.0742764 	-22.0308 	41.4756 	-0.544187 	0
0.0748477 	-22.1921 	41.4809 	-0.537964 	0
0.0754191 	-22.3536 	41.4863 	-0.531352 	0
0.0759905 	-22.4903 	41.4914 	-0.525363 	0
0.0765618 	-22.627 	41.4966 	-0.519375 	0
0.0771332 	-22.7637 	41.5017 	-0.513386 	0
0.0777045 	-22.9004 	41.5069 	-0.507397 	0
0.0782759 	-23.0371 	41.512 	-0.501408 	0
0.0788472 	-23.1739 	41.5171 	-0.495419 	0
0.0794186 	-23.3106 	41.5223 	-0.48943 	0
0.0799899 	-23.4513 	41.5275 	-0.482926 	0
0.0805613 	-23.5816 	41.5328 	-0.476499 	0
0.0811327 	-23.7005 	41.538 	-0.470414 	0
0.081704 	-23.8195 	41.5432 	-0.464328 	0
0.0822754 	-23.9384 	41.5484 	-0.458243 	0
0.0828467 	-24.0574 	41.5537 	-0.452158 	0
0.0834181 	-24.1763 	41.5589 	-0.446073 	0
0.0839894 	-24.2952 	41.5641 	-0.439988 	0
0.0845608 	-24.4189 	41.5695 	-0.433144 	0
0.0851322 	-24.5228 	41.575 	-0.427003 	0
0.0857035 	-24.6267 	41.5805 	-0.420862 	0
0.0862749 	-24.7305 	41.5861 	-0.414721 	0
0.0868462 	-24.8344 	41.5916 	-0.40858 	0
0.0874176 	-24.9383 	41.5971 	-0.40244 	0
0.0879889 	-25.0432 	41.6026 	-0.396088 	0
0.0885603 	-25.1437 	41.6084 	-0.389496 	0
0.0891317 	-25.2348 	41.6145 	-0.383308 	0
0.089703 	-25.3258 	41.6205 	-0.377121 	0
0.0902744 	-25.4168 	41.6266 	-0.370934 	0
0.0908457 	-25.5079 	41.6326 	-0.364746 	0
0.0914171 	-25.6004 	41.6387 	-0.358227 	0
0.0919884 	-25.6845 	41.6453 	-0.351809 	0
0.0925598 	-25.7646 	41.6522 	-0.345598 	0
0.0931312 	-25.8446 	41.659 	-0.339388 	0
0.0937025 	-25.9247 	41.6658 	-0.333177 	0
0.0942739 	-26.0057 	41.6727 	-0.326705 	0
0.0948452 	-26.0797 	41.6804 	-0.320275 	0
0.0954166 	-26.1504 	41.6883 	-0.314044 	0
0.0959879 	-26.221 	41.6963 	-0.307814 	0
0.0965593 	-26.2916 	41.7042 	-0.301584 	0
0.0971307 	-26.3606 	41.7127 	-0.294951 	0
0.097702 	-26.4231 	41.7221 	-0.288714 	0
0.0982734 	-26.4856 	41.7315 	-0.282478 	0
0.0988447 	-26.5482 	41.741 	-0.276207 	0
0.0994161 	-26.6076 	41.7514 	-0.269659 	0
0.0999874 	-26.6631 	41.7627 	-0.26342 	0
0.100559 	-26.7186 	41.774 	-0.25718 	0
0.10113 	-26.7733 	41.7858 	-0.250645 	0
0.101702 	-26.8228 	41.7993 	-0.244408 	0
0.102273 	-26.8722 	41.8128 	-0.238172 	0
0.102844 	-26.9203 	41.8272 	-0.231681 	0
0.103416 	-26.9645 	41.8433 	-0.225451 	0
0.103987 	-27.0089 	41.8594 	-0.219111 	0
0.104558 	-27.0494 	41.878 	-0.212774 	0
0.10513 	-27.0891 	41.897 	-0.206551 	0
0.105701 	-27.1265 	41.9184 	-0.200166 	0
0.106272 	-27.1623 	41.9411 	-0.193991 	0
0.106844 	-27.1956 	41.961 	-0.187736 	0
0.107415 	-27.2276 	41.9745 	-0.18145 	0
0.107986 	-27.2546 	41.8622 	-0.173679 	0
0.108558 	-27.2798 	41.4648 	-0.161287 	0
0.109129 	-27.3037 	40.6774 	-0.142995 	0
0.109701 	-27.3276 	39.3993 	-0.1182 	0
0.110272 	-27.3497 	37.8228 	-0.0927681 	0
0.110843 	-27.3702 	36.1032 	-0.0697422 	0
0.111415 	-27.3906 	34.2931 	-0.0493263 	0
0.111986 	-27.4107 	32.3359 	-0.0326066 	0
0.112557 	-27.4297 	29.9497 	-0.0186973 	0
0.113129 	-27.4462 	26.2181 	-0.00751353 	0
0.1137 	-27.4551 	1.12894e-10 	-2.00298e-15 	0
