0 	4.15233 	0 	0 	0
0.000571357 	4.13919 	16.7277 	-0.00763604 	0
0.00114271 	4.10097 	18.4057 	-0.0219924 	0
0.00171407 	4.0539 	19.2847 	-0.0383803 	0
0.00228543 	4.00631 	19.9396 	-0.0554039 	0
0.00285678 	3.96094 	20.5051 	-0.0727201 	0
0.00342814 	3.91983 	21.0296 	-0.08984 	0
0.0039995 	3.88281 	21.5382 	-0.106721 	0
0.00457085 	3.8498 	22.0443 	-0.12319 	0
0.00514221 	3.82077 	22.5554 	-0.138953 	0
0.00571357 	3.79483 	23.0781 	-0.154011 	0
0.00628492 	3.77136 	23.6164 	-0.16826 	0
0.00685628 	3.7498 	24.1734 	-0.181595 	0
0.00742764 	3.72958 	24.7514 	-0.193927 	0
0.00799899 	3.71077 	25.3499 	-0.204926 	0
0.00857035 	3.69219 	25.9718 	-0.214854 	0
0.00914171 	3.67402 	26.6161 	-0.223284 	0
0.00971307 	3.65518 	27.2846 	-0.230505 	0
0.0102844 	3.63944 	27.9773 	-0.236052 	0
0.0108558 	3.62866 	28.7125 	-0.239679 	0
0.0114271 	3.61756 	29.5082 	-0.241146 	0
0.0119985 	3.60164 	30.3569 	-0.240337 	0
0.0125698 	3.58369 	31.0847 	-0.23828 	0
0.0131412 	3.54139 	32.0876 	-0.23408 	0
0.0137126 	3.51446 	32.8786 	-0.229875 	0
0.0142839 	3.4903 	33.6987 	-0.223643 	0
0.0148553 	3.4646 	34.561 	-0.215021 	0
0.0154266 	3.43839 	35.4803 	-0.203534 	0
0.015998 	3.41313 	36.466 	-0.187745 	0
0.0165693 	3.37567 	37.3009 	-0.175192 	0
0.0171407 	3.32778 	37.7972 	-0.171443 	0
0.0177121 	3.27746 	38.0981 	-0.172248 	0
0.0182834 	3.22486 	38.3544 	-0.173792 	0
0.0188548 	3.17216 	38.5989 	-0.1753 	0
0.0194261 	3.12051 	38.8336 	-0.176704 	0
0.0199975 	3.06485 	39.0642 	-0.178148 	0
0.0205688 	3.01192 	39.2806 	-0.179435 	0
0.0211402 	2.95553 	39.4947 	-0.180761 	0
0.0217116 	2.90143 	39.6916 	-0.181941 	0
0.0222829 	2.84283 	39.889 	-0.183184 	0
0.0228543 	2.78948 	40.0589 	-0.184182 	0
0.0234256 	2.72954 	40.2279 	-0.185243 	0
0.023997 	2.67244 	40.3796 	-0.186185 	0
0.0245683 	2.61547 	40.5072 	-0.186989 	0
0.0251397 	2.55426 	40.6355 	-0.187829 	0
0.0257111 	2.49688 	40.7351 	-0.188479 	0
0.0262824 	2.43926 	40.809 	-0.188971 	0
0.0268538 	2.3771 	40.8836 	-0.189481 	0
0.0274251 	2.31662 	40.9462 	-0.189923 	0
0.0279965 	2.26246 	40.9634 	-0.190107 	0
0.0285678 	2.20013 	40.9815 	-0.190289 	0
0.0291392 	2.13764 	40.9997 	-0.190471 	0
0.0297106 	2.07869 	41.0028 	-0.190567 	0
0.0302819 	2.02482 	40.9844 	-0.19054 	0
0.0308533 	1.96267 	40.9665 	-0.190477 	0
0.0314246 	1.90053 	40.9485 	-0.190415 	0
0.031996 	1.83888 	40.9306 	-0.190352 	0
0.0325673 	1.78584 	40.9145 	-0.190276 	0
0.0331387 	1.72922 	40.8984 	-0.19018 	0
0.0337101 	1.66804 	40.8823 	-0.19006 	0
0.0342814 	1.60685 	40.8662 	-0.189939 	0
0.0348528 	1.54619 	40.8513 	-0.189826 	0
0.0354241 	1.49369 	40.8555 	-0.189826 	0
0.0359955 	1.43951 	40.8596 	-0.189817 	0
0.0365668 	1.37898 	40.8638 	-0.189778 	0
0.0371382 	1.31844 	40.868 	-0.189739 	0
0.0377095 	1.2579 	40.8722 	-0.189699 	0
0.0382809 	1.20027 	40.8764 	-0.189626 	0
0.0388523 	1.14838 	40.8805 	-0.189487 	0
0.0394236 	1.09482 	40.8846 	-0.189336 	0
0.039995 	1.03502 	40.889 	-0.189141 	0
0.0405663 	0.975229 	40.8933 	-0.188946 	0
0.0411377 	0.915432 	40.8977 	-0.188751 	0
0.041709 	0.855636 	40.902 	-0.188556 	0
0.0422804 	0.803 	40.9025 	-0.188335 	0
0.0428518 	0.752485 	40.9018 	-0.188106 	0
0.0434231 	0.699386 	40.9012 	-0.187853 	0
0.0439945 	0.641199 	40.9007 	-0.187553 	0
0.0445658 	0.583012 	40.9002 	-0.187252 	0
0.0451372 	0.524825 	40.8998 	-0.186952 	0
0.0457085 	0.466638 	40.8993 	-0.186652 	0
0.0462799 	0.410723 	40.8993 	-0.18635 	0
0.0468513 	0.361775 	40.9009 	-0.186042 	0
0.0474226 	0.312827 	40.9026 	-0.185735 	0
0.047994 	0.260526 	40.9043 	-0.18539 	0
0.0485653 	0.204202 	40.9061 	-0.184999 	0
0.0491367 	0.147878 	40.9079 	-0.184609 	0
0.049708 	0.0915539 	40.9096 	-0.184218 	0
0.0502794 	0.03523 	40.9114 	-0.183827 	0
0.0508508 	-0.0210939 	40.9132 	-0.183437 	0
0.0514221 	-0.0714183 	40.9148 	-0.183019 	0
0.0519935 	-0.118037 	40.9163 	-0.182584 	0
0.0525648 	-0.164656 	40.9177 	-0.182148 	0
0.0531362 	-0.214193 	40.9192 	-0.181671 	0
0.0537075 	-0.267792 	40.9209 	-0.181134 	0
0.0542789 	-0.321391 	40.9225 	-0.180598 	0
0.0548503 	-0.374989 	40.9241 	-0.180061 	0
0.0554216 	-0.428588 	40.9257 	-0.179525 	0
0.055993 	-0.482187 	40.9273 	-0.178988 	0
0.0565643 	-0.535786 	40.9289 	-0.178452 	0
0.0571357 	-0.581194 	40.9306 	-0.177933 	0
0.057707 	-0.623519 	40.9323 	-0.17742 	0
0.0582784 	-0.665845 	40.934 	-0.176907 	0
0.0588497 	-0.708532 	40.9356 	-0.176388 	0
0.0594211 	-0.757131 	40.9375 	-0.175762 	0
0.0599925 	-0.805729 	40.9393 	-0.175136 	0
0.0605638 	-0.854328 	40.9411 	-0.174511 	0
0.0611352 	-0.902927 	40.943 	-0.173885 	0
0.0617065 	-0.951525 	40.9448 	-0.173259 	0
0.0622779 	-1.00012 	40.9466 	-0.172633 	0
0.0628492 	-1.04872 	40.9484 	-0.172007 	0
0.0634206 	-1.09355 	40.9503 	-0.171378 	0
0.063992 	-1.13237 	40.9522 	-0.170742 	0
0.0645633 	-1.17119 	40.9542 	-0.170107 	0
0.0651347 	-1.21001 	40.9561 	-0.169472 	0
0.065706 	-1.25291 	40.9581 	-0.168744 	0
0.0662774 	-1.29743 	40.9602 	-0.16798 	0
0.0668487 	-1.34195 	40.9622 	-0.167217 	0
0.0674201 	-1.38646 	40.9643 	-0.166453 	0
0.0679915 	-1.43098 	40.9663 	-0.165689 	0
0.0685628 	-1.4755 	40.9684 	-0.164925 	0
0.0691342 	-1.52001 	40.9705 	-0.164162 	0
0.0697055 	-1.56414 	40.9725 	-0.163399 	0
0.0702769 	-1.60014 	40.9748 	-0.162663 	0
0.0708482 	-1.63615 	40.9771 	-0.161928 	0
0.0714196 	-1.67216 	40.9793 	-0.161192 	0
0.071991 	-1.71261 	40.9817 	-0.160333 	0
0.0725623 	-1.75386 	40.9841 	-0.159452 	0
0.0731337 	-1.79511 	40.9865 	-0.158571 	0
0.073705 	-1.83637 	40.9889 	-0.15769 	0
0.0742764 	-1.87762 	40.9913 	-0.156809 	0
0.0748477 	-1.91887 	40.9937 	-0.155928 	0
0.0754191 	-1.95875 	40.9961 	-0.155057 	0
0.0759905 	-1.99109 	40.9988 	-0.154244 	0
0.0765618 	-2.02343 	41.0014 	-0.153432 	0
0.0771332 	-2.05747 	41.0041 	-0.152563 	0
0.0777045 	-2.09449 	41.0068 	-0.151595 	0
0.0782759 	-2.1315 	41.0096 	-0.150628 	0
0.0788472 	-2.16851 	41.0123 	-0.149661 	0
0.0794186 	-2.20552 	41.0151 	-0.148694 	0
0.0799899 	-2.24254 	41.0178 	-0.147727 	0
0.0805613 	-2.27527 	41.0208 	-0.146812 	0
0.0811327 	-2.30416 	41.0239 	-0.145943 	0
0.081704 	-2.33344 	41.027 	-0.14506 	0
0.0822754 	-2.36649 	41.0302 	-0.144029 	0
0.0828467 	-2.39953 	41.0334 	-0.142998 	0
0.0834181 	-2.43258 	41.0366 	-0.141967 	0
0.0839894 	-2.46563 	41.0398 	-0.140936 	0
0.0845608 	-2.49866 	41.043 	-0.139905 	0
0.0851322 	-2.52445 	41.0467 	-0.138996 	0
0.0857035 	-2.55023 	41.0505 	-0.138088 	0
0.0862749 	-2.57926 	41.0543 	-0.137032 	0
0.0868462 	-2.60874 	41.0581 	-0.135956 	0
0.0874176 	-2.63821 	41.0619 	-0.13488 	0
0.0879889 	-2.66769 	41.0657 	-0.133804 	0
0.0885603 	-2.69432 	41.0698 	-0.132786 	0
0.0891317 	-2.71731 	41.0743 	-0.131841 	0
0.089703 	-2.74221 	41.0789 	-0.130796 	0
0.0902744 	-2.76848 	41.0835 	-0.12968 	0
0.0908457 	-2.79474 	41.0881 	-0.128564 	0
0.0914171 	-2.821 	41.0927 	-0.127447 	0
0.0919884 	-2.84315 	41.0981 	-0.12644 	0
0.0925598 	-2.86392 	41.1037 	-0.125459 	0
0.0931312 	-2.88732 	41.1093 	-0.12432 	0
0.0937025 	-2.91072 	41.115 	-0.12318 	0
0.0942739 	-2.93412 	41.1206 	-0.122041 	0
0.0948452 	-2.95383 	41.1272 	-0.121013 	0
0.0954166 	-2.97291 	41.1342 	-0.119974 	0
0.0959879 	-2.99377 	41.1412 	-0.118812 	0
0.0965593 	-3.01464 	41.1482 	-0.117651 	0
0.0971307 	-3.03386 	41.1559 	-0.11655 	0
0.097702 	-3.05049 	41.1646 	-0.115534 	0
0.0982734 	-3.06912 	41.1733 	-0.114363 	0
0.0988447 	-3.08775 	41.182 	-0.113191 	0
0.0994161 	-3.10411 	41.1919 	-0.112116 	0
0.0999874 	-3.11972 	41.2027 	-0.111025 	0
0.100559 	-3.13638 	41.2135 	-0.109842 	0
0.10113 	-3.15214 	41.2249 	-0.108702 	0
0.101702 	-3.16579 	41.2381 	-0.107636 	0
0.102273 	-3.18071 	41.2514 	-0.106448 	0
0.102844 	-3.19451 	41.2658 	-0.105331 	0
0.103416 	-3.20722 	41.2821 	-0.104244 	0
0.103987 	-3.22069 	41.2983 	-0.103075 	0
0.104558 	-3.23198 	41.3154 	-0.102076 	0
0.10513 	-3.24406 	41.3335 	-0.100923 	0
0.105701 	-3.25395 	41.3021 	-0.0994366 	0
0.106272 	-3.26415 	41.2626 	-0.0978686 	0
0.106844 	-3.27284 	40.9643 	-0.0928332 	0
0.107415 	-3.28176 	40.5787 	-0.0865444 	0
0.107986 	-3.29178 	39.7321 	-0.0739711 	0
0.108558 	-3.3018 	38.7422 	-0.0609228 	0
0.109129 	-3.31169 	37.6102 	-0.0478629 	0
0.109701 	-3.32117 	36.3935 	-0.0363186 	0
0.110272 	-3.33109 	35.1316 	-0.0264909 	0
0.110843 	-3.34056 	33.8305 	-0.0186106 	0
0.111415 	-3.34922 	32.4553 	-0.0123848 	0
0.111986 	-3.3563 	30.8707 	-0.00775477 	0
0.112557 	-3.36168 	28.8092 	-0.00429287 	0
0.113129 	-3.36523 	25.3828 	-0.00175853 	0
0.1137 	-3.36689 	1.02109e-10 	-4.73301e-16 	0
