0 	-189.6 	0 	0 	0
0.000571357 	-189.584 	-7.1417 	0.0250079 	0
0.00114271 	-189.596 	-6.75853 	0.0336408 	0
0.00171407 	-189.641 	-6.25289 	0.036761 	0
0.00228543 	-189.715 	-5.69306 	0.0340077 	0
0.00285678 	-189.808 	-5.09022 	0.0267121 	0
0.00342814 	-189.919 	-4.43919 	0.0124662 	0
0.0039995 	-190.038 	-3.73953 	-0.00811981 	0
0.00457085 	-190.157 	-2.98511 	-0.0365462 	0
0.00514221 	-190.269 	-2.16537 	-0.0748663 	0
0.00571357 	-190.361 	-1.27353 	-0.123688 	0
0.00628492 	-190.42 	-0.300677 	-0.183894 	0
0.00685628 	-190.425 	0.766719 	-0.256446 	0
0.00742764 	-190.357 	1.96516 	-0.343457 	0
0.00799899 	-190.183 	3.422 	-0.452363 	0
0.00857035 	-189.913 	5.13661 	-0.579509 	0
0.00914171 	-189.581 	7.12522 	-0.722179 	0
0.00971307 	-189.263 	9.25751 	-0.873323 	0
0.0102844 	-188.991 	11.4627 	-1.03118 	0
0.0108558 	-188.635 	13.6975 	-1.18992 	0
0.0114271 	-188.033 	16.0435 	-1.34365 	0
0.0119985 	-187.244 	18.5978 	-1.48472 	0
0.0125698 	-186.524 	20.8704 	-1.58776 	0
0.0131412 	-185.417 	24.3741 	-1.70703 	0
0.0137126 	-184.402 	27.6046 	-1.78381 	0
0.0142839 	-183.327 	30.9729 	-1.84136 	0
0.0148553 	-182.206 	34.0884 	-1.89667 	0
0.0154266 	-181.024 	35.9745 	-1.94279 	0
0.015998 	-179.815 	36.7633 	-1.95713 	0
0.0165693 	-178.607 	37.3349 	-1.96311 	0
0.0171407 	-177.403 	37.8682 	-1.9673 	0
0.0177121 	-176.205 	38.3549 	-1.96912 	0
0.0182834 	-175.009 	38.8004 	-1.9694 	0
0.0188548 	-173.826 	39.2075 	-1.96768 	0
0.0194261 	-172.66 	39.5824 	-1.96418 	0
0.0199975 	-171.49 	39.9449 	-1.96095 	0
0.0205688 	-170.352 	40.2693 	-1.95525 	0
0.0211402 	-169.21 	40.59 	-1.95015 	0
0.0217116 	-168.101 	40.8796 	-1.94313 	0
0.0222829 	-166.98 	41.1702 	-1.93707 	0
0.0228543 	-165.906 	41.4307 	-1.92867 	0
0.0234256 	-164.819 	41.6901 	-1.92141 	0
0.023997 	-163.756 	41.9377 	-1.9133 	0
0.0245683 	-162.719 	42.1689 	-1.90444 	0
0.0251397 	-161.671 	42.4005 	-1.89637 	0
0.0257111 	-160.655 	42.6185 	-1.88729 	0
0.0262824 	-159.661 	42.8243 	-1.87767 	0
0.0268538 	-158.657 	43.0304 	-1.86882 	0
0.0274251 	-157.667 	43.2296 	-1.85959 	0
0.0279965 	-156.728 	43.4024 	-1.84898 	0
0.0285678 	-155.776 	43.576 	-1.83923 	0
0.0291392 	-154.821 	43.7497 	-1.82966 	0
0.0297106 	-153.895 	43.896 	-1.81865 	0
0.0302819 	-153.009 	44.0026 	-1.80559 	0
0.0308533 	-152.112 	44.1106 	-1.79337 	0
0.0314246 	-151.211 	44.2188 	-1.78133 	0
0.031996 	-150.316 	44.3218 	-1.76906 	0
0.0325673 	-149.503 	44.3326 	-1.75271 	0
0.0331387 	-148.688 	44.3436 	-1.73659 	0
0.0337101 	-147.861 	44.3555 	-1.72122 	0
0.0342814 	-147.035 	44.3673 	-1.70584 	0
0.0348528 	-146.214 	44.3769 	-1.69038 	0
0.0354241 	-145.492 	44.3519 	-1.67353 	0
0.0359955 	-144.769 	44.3269 	-1.65668 	0
0.0365668 	-144.034 	44.3017 	-1.64065 	0
0.0371382 	-143.297 	44.2766 	-1.62464 	0
0.0377095 	-142.561 	44.2514 	-1.60863 	0
0.0382809 	-141.858 	44.2299 	-1.59272 	0
0.0388523 	-141.221 	44.2157 	-1.57699 	0
0.0394236 	-140.584 	44.2014 	-1.56126 	0
0.039995 	-139.935 	44.1869 	-1.54619 	0
0.0405663 	-139.285 	44.1722 	-1.53116 	0
0.0411377 	-138.635 	44.1576 	-1.51614 	0
0.041709 	-137.985 	44.143 	-1.50111 	0
0.0422804 	-137.409 	44.1299 	-1.48622 	0
0.0428518 	-136.855 	44.1172 	-1.47138 	0
0.0434231 	-136.3 	44.1045 	-1.45654 	0
0.0439945 	-135.734 	44.0915 	-1.44229 	0
0.0445658 	-135.168 	44.0785 	-1.42804 	0
0.0451372 	-134.603 	44.0656 	-1.41379 	0
0.0457085 	-134.037 	44.0526 	-1.39954 	0
0.0462799 	-133.494 	44.0402 	-1.38536 	0
0.0468513 	-133.019 	44.0296 	-1.37137 	0
0.0474226 	-132.544 	44.019 	-1.35738 	0
0.047994 	-132.069 	44.0084 	-1.34345 	0
0.0485653 	-131.584 	43.9976 	-1.32996 	0
0.0491367 	-131.1 	43.9867 	-1.31648 	0
0.049708 	-130.615 	43.9759 	-1.30299 	0
0.0502794 	-130.13 	43.965 	-1.28951 	0
0.0508508 	-129.646 	43.9542 	-1.27603 	0
0.0514221 	-129.214 	43.9447 	-1.26278 	0
0.0519935 	-128.815 	43.9361 	-1.24968 	0
0.0525648 	-128.416 	43.9275 	-1.23659 	0
0.0531362 	-128.017 	43.9189 	-1.22349 	0
0.0537075 	-127.609 	43.9101 	-1.21081 	0
0.0542789 	-127.202 	43.9012 	-1.19813 	0
0.0548503 	-126.794 	43.8924 	-1.18545 	0
0.0554216 	-126.386 	43.8836 	-1.17277 	0
0.055993 	-125.979 	43.8748 	-1.16008 	0
0.0565643 	-125.571 	43.8659 	-1.1474 	0
0.0571357 	-125.227 	43.8587 	-1.13524 	0
0.057707 	-124.906 	43.8522 	-1.12327 	0
0.0582784 	-124.586 	43.8456 	-1.11131 	0
0.0588497 	-124.265 	43.839 	-1.09934 	0
0.0594211 	-123.94 	43.8323 	-1.08757 	0
0.0599925 	-123.613 	43.8256 	-1.07594 	0
0.0605638 	-123.285 	43.8188 	-1.0643 	0
0.0611352 	-122.958 	43.8121 	-1.05267 	0
0.0617065 	-122.63 	43.8053 	-1.04103 	0
0.0622779 	-122.302 	43.7985 	-1.0294 	0
0.0628492 	-121.975 	43.7918 	-1.01777 	0
0.0634206 	-121.672 	43.7857 	-1.00628 	0
0.063992 	-121.411 	43.7808 	-0.995024 	0
0.0645633 	-121.149 	43.7758 	-0.983768 	0
0.0651347 	-120.887 	43.7709 	-0.972513 	0
0.065706 	-120.624 	43.7659 	-0.961326 	0
0.0662774 	-120.357 	43.7608 	-0.950347 	0
0.0668487 	-120.089 	43.7557 	-0.939368 	0
0.0674201 	-119.821 	43.7506 	-0.928389 	0
0.0679915 	-119.554 	43.7455 	-0.91741 	0
0.0685628 	-119.286 	43.7404 	-0.906431 	0
0.0691342 	-119.019 	43.7353 	-0.895451 	0
0.0697055 	-118.753 	43.7302 	-0.884472 	0
0.0702769 	-118.533 	43.7266 	-0.873487 	0
0.0708482 	-118.313 	43.7229 	-0.862502 	0
0.0714196 	-118.092 	43.7193 	-0.851517 	0
0.071991 	-117.87 	43.7155 	-0.840639 	0
0.0725623 	-117.644 	43.7118 	-0.829896 	0
0.0731337 	-117.419 	43.708 	-0.819154 	0
0.073705 	-117.194 	43.7042 	-0.808411 	0
0.0742764 	-116.968 	43.7004 	-0.797669 	0
0.0748477 	-116.743 	43.6966 	-0.786927 	0
0.0754191 	-116.524 	43.6931 	-0.776212 	0
0.0759905 	-116.34 	43.6906 	-0.76565 	0
0.0765618 	-116.157 	43.6882 	-0.755088 	0
0.0771332 	-115.973 	43.6857 	-0.744528 	0
0.0777045 	-115.785 	43.6832 	-0.734179 	0
0.0782759 	-115.597 	43.6806 	-0.723831 	0
0.0788472 	-115.409 	43.6781 	-0.713483 	0
0.0794186 	-115.221 	43.6755 	-0.703134 	0
0.0799899 	-115.033 	43.673 	-0.692786 	0
0.0805613 	-114.863 	43.6711 	-0.682485 	0
0.0811327 	-114.708 	43.6698 	-0.672226 	0
0.081704 	-114.553 	43.6684 	-0.661967 	0
0.0822754 	-114.395 	43.6671 	-0.651859 	0
0.0828467 	-114.236 	43.6656 	-0.641794 	0
0.0834181 	-114.078 	43.6642 	-0.631728 	0
0.0839894 	-113.919 	43.6628 	-0.621663 	0
0.0845608 	-113.761 	43.6614 	-0.611598 	0
0.0851322 	-113.629 	43.6612 	-0.601573 	0
0.0857035 	-113.497 	43.661 	-0.591548 	0
0.0862749 	-113.363 	43.6607 	-0.581632 	0
0.0868462 	-113.227 	43.6604 	-0.571786 	0
0.0874176 	-113.092 	43.6601 	-0.56194 	0
0.0879889 	-112.957 	43.6598 	-0.552094 	0
0.0885603 	-112.831 	43.66 	-0.542246 	0
0.0891317 	-112.718 	43.661 	-0.532393 	0
0.089703 	-112.603 	43.6619 	-0.522599 	0
0.0902744 	-112.487 	43.6627 	-0.512915 	0
0.0908457 	-112.371 	43.6636 	-0.503231 	0
0.0914171 	-112.255 	43.6645 	-0.493547 	0
0.0919884 	-112.152 	43.6663 	-0.48384 	0
0.0925598 	-112.054 	43.6685 	-0.474124 	0
0.0931312 	-111.954 	43.6707 	-0.464551 	0
0.0937025 	-111.853 	43.6728 	-0.454995 	0
0.0942739 	-111.753 	43.675 	-0.44544 	0
0.0948452 	-111.664 	43.6783 	-0.435844 	0
0.0954166 	-111.578 	43.6819 	-0.426254 	0
0.0959879 	-111.491 	43.6856 	-0.416797 	0
0.0965593 	-111.404 	43.6892 	-0.407341 	0
0.0971307 	-111.321 	43.6935 	-0.397859 	0
0.097702 	-111.247 	43.6989 	-0.388331 	0
0.0982734 	-111.171 	43.7043 	-0.37895 	0
0.0988447 	-111.095 	43.7097 	-0.369573 	0
0.0994161 	-111.025 	43.7162 	-0.360151 	0
0.0999874 	-110.959 	43.7236 	-0.350747 	0
0.100559 	-110.893 	43.731 	-0.341438 	0
0.10113 	-110.828 	43.739 	-0.332106 	0
0.101702 	-110.771 	43.7487 	-0.32273 	0
0.102273 	-110.712 	43.7584 	-0.313471 	0
0.102844 	-110.657 	43.7691 	-0.304179 	0
0.103416 	-110.606 	43.7814 	-0.294893 	0
0.103987 	-110.554 	43.7937 	-0.285687 	0
0.104558 	-110.508 	43.8085 	-0.276398 	0
0.10513 	-110.463 	43.8238 	-0.267226 	0
0.105701 	-110.421 	43.841 	-0.257985 	0
0.106272 	-110.38 	43.8594 	-0.248837 	0
0.106844 	-110.344 	43.8801 	-0.239656 	0
0.107415 	-110.308 	43.9019 	-0.230566 	0
0.107986 	-110.276 	43.9269 	-0.221374 	0
0.108558 	-110.246 	43.9541 	-0.212275 	0
0.109129 	-110.219 	43.9824 	-0.203252 	0
0.109701 	-110.193 	43.9851 	-0.193985 	0
0.110272 	-110.167 	43.7431 	-0.181707 	0
0.110843 	-110.144 	42.6285 	-0.155501 	0
0.111415 	-110.131 	40.4586 	-0.11596 	0
0.111986 	-110.128 	37.6692 	-0.0780225 	0
0.112557 	-110.138 	34.4766 	-0.0460657 	0
0.113129 	-110.159 	29.9677 	-0.0195461 	0
0.1137 	-110.181 	1.3044e-10 	-5.00174e-15 	0
