0 	-106.799 	0 	0 	0
0.000571357 	-107.192 	-2.52532 	-0.10684 	0
0.00114271 	-107.785 	-1.91488 	-0.232512 	0
0.00171407 	-108.32 	-1.23118 	-0.359204 	0
0.00228543 	-108.768 	-0.485708 	-0.486037 	0
0.00285678 	-109.134 	0.32039 	-0.612783 	0
0.00342814 	-109.429 	1.18836 	-0.739372 	0
0.0039995 	-109.665 	2.12114 	-0.865776 	0
0.00457085 	-109.852 	3.12274 	-0.991903 	0
0.00514221 	-110 	4.19788 	-1.11756 	0
0.00571357 	-110.114 	5.35089 	-1.24247 	0
0.00628492 	-110.141 	6.59266 	-1.36622 	0
0.00685628 	-110.035 	7.99646 	-1.48803 	0
0.00742764 	-110.023 	9.54202 	-1.60607 	0
0.00799899 	-110.025 	11.1956 	-1.71936 	0
0.00857035 	-110.043 	12.9509 	-1.82737 	0
0.00914171 	-110.092 	14.7931 	-1.92923 	0
0.00971307 	-110.184 	16.6905 	-2.02481 	0
0.0102844 	-110.334 	18.5959 	-2.11376 	0
0.0108558 	-110.549 	20.4434 	-2.19583 	0
0.0114271 	-110.781 	22.1958 	-2.2707 	0
0.0119985 	-110.959 	23.9612 	-2.33822 	0
0.0125698 	-111.148 	25.7513 	-2.39549 	0
0.0131412 	-111.254 	27.8852 	-2.44881 	0
0.0137126 	-111.489 	30.2177 	-2.48963 	0
0.0142839 	-111.793 	32.6506 	-2.51802 	0
0.0148553 	-112.097 	33.3704 	-2.51892 	0
0.0154266 	-112.395 	33.9241 	-2.51751 	0
0.015998 	-112.689 	34.4639 	-2.51557 	0
0.0165693 	-112.975 	34.9927 	-2.51319 	0
0.0171407 	-113.252 	35.5098 	-2.51035 	0
0.0177121 	-113.528 	36.0062 	-2.50665 	0
0.0182834 	-113.792 	36.4742 	-2.50127 	0
0.0188548 	-114.048 	36.8995 	-2.49332 	0
0.0194261 	-114.3 	37.286 	-2.48322 	0
0.0199975 	-114.544 	37.6551 	-2.47238 	0
0.0205688 	-114.779 	38.0224 	-2.46188 	0
0.0211402 	-115.007 	38.393 	-2.45204 	0
0.0217116 	-115.234 	38.7584 	-2.44238 	0
0.0222829 	-115.452 	39.1024 	-2.43172 	0
0.0228543 	-115.657 	39.4262 	-2.42002 	0
0.0234256 	-115.856 	39.7324 	-2.40753 	0
0.023997 	-116.061 	40.0192 	-2.39461 	0
0.0245683 	-116.243 	40.3014 	-2.38155 	0
0.0251397 	-116.422 	40.5799 	-2.36855 	0
0.0257111 	-116.605 	40.8541 	-2.35623 	0
0.0262824 	-116.768 	41.1241 	-2.34361 	0
0.0268538 	-116.942 	41.372 	-2.33046 	0
0.0274251 	-117.092 	41.6067 	-2.31649 	0
0.0279965 	-117.254 	41.7915 	-2.30041 	0
0.0285678 	-117.393 	41.9682 	-2.28376 	0
0.0291392 	-117.543 	42.0833 	-2.26442 	0
0.0297106 	-117.675 	42.1995 	-2.24495 	0
0.0302819 	-117.809 	42.2861 	-2.22494 	0
0.0308533 	-117.945 	42.369 	-2.20486 	0
0.0314246 	-118.055 	42.4525 	-2.18509 	0
0.031996 	-118.18 	42.5367 	-2.16612 	0
0.0325673 	-118.288 	42.621 	-2.14701 	0
0.0331387 	-118.396 	42.6765 	-2.12692 	0
0.0337101 	-118.509 	42.7264 	-2.10667 	0
0.0342814 	-118.598 	42.7771 	-2.08627 	0
0.0348528 	-118.699 	42.7806 	-2.06464 	0
0.0354241 	-118.801 	42.7839 	-2.043 	0
0.0359955 	-118.879 	42.7873 	-2.02119 	0
0.0365668 	-118.968 	42.7871 	-2.00029 	0
0.0371382 	-119.058 	42.7866 	-1.97947 	0
0.0377095 	-119.135 	42.7858 	-1.95854 	0
0.0382809 	-119.206 	42.7859 	-1.93814 	0
0.0388523 	-119.287 	42.7866 	-1.91818 	0
0.0394236 	-119.367 	42.7874 	-1.89821 	0
0.039995 	-119.42 	42.7875 	-1.87808 	0
0.0405663 	-119.491 	42.7832 	-1.85874 	0
0.0411377 	-119.562 	42.779 	-1.8394 	0
0.041709 	-119.63 	42.7747 	-1.82004 	0
0.0422804 	-119.675 	42.7709 	-1.80074 	0
0.0428518 	-119.738 	42.773 	-1.7826 	0
0.0434231 	-119.8 	42.7751 	-1.76446 	0
0.0439945 	-119.863 	42.7771 	-1.74631 	0
0.0445658 	-119.899 	42.7783 	-1.728 	0
0.0451372 	-119.954 	42.7907 	-1.71117 	0
0.0457085 	-120.009 	42.8032 	-1.69435 	0
0.0462799 	-120.065 	42.8157 	-1.67754 	0
0.0468513 	-120.107 	42.8278 	-1.66064 	0
0.0474226 	-120.146 	42.8398 	-1.64415 	0
0.047994 	-120.196 	42.852 	-1.62817 	0
0.0485653 	-120.246 	42.8642 	-1.61218 	0
0.0491367 	-120.295 	42.8764 	-1.59619 	0
0.049708 	-120.327 	42.8882 	-1.58013 	0
0.0502794 	-120.365 	42.8975 	-1.56454 	0
0.0508508 	-120.41 	42.9051 	-1.54927 	0
0.0514221 	-120.455 	42.9128 	-1.534 	0
0.0519935 	-120.5 	42.9205 	-1.51873 	0
0.0525648 	-120.533 	42.9279 	-1.50342 	0
0.0531362 	-120.563 	42.9351 	-1.48839 	0
0.0537075 	-120.605 	42.9424 	-1.47398 	0
0.0542789 	-120.646 	42.9497 	-1.45956 	0
0.0548503 	-120.688 	42.957 	-1.44515 	0
0.0554216 	-120.73 	42.9643 	-1.43074 	0
0.055993 	-120.752 	42.9712 	-1.41627 	0
0.0565643 	-120.786 	42.9782 	-1.4024 	0
0.0571357 	-120.826 	42.9855 	-1.38884 	0
0.057707 	-120.866 	42.9927 	-1.37529 	0
0.0582784 	-120.905 	42.9999 	-1.36174 	0
0.0588497 	-120.945 	43.0071 	-1.34818 	0
0.0594211 	-120.968 	43.014 	-1.3346 	0
0.0599925 	-120.998 	43.0204 	-1.32154 	0
0.0605638 	-121.037 	43.0266 	-1.309 	0
0.0611352 	-121.075 	43.0327 	-1.29646 	0
0.0617065 	-121.114 	43.0388 	-1.28393 	0
0.0622779 	-121.152 	43.045 	-1.27139 	0
0.0628492 	-121.184 	43.0509 	-1.25885 	0
0.0634206 	-121.207 	43.0567 	-1.24629 	0
0.063992 	-121.243 	43.062 	-1.2344 	0
0.0645633 	-121.282 	43.0671 	-1.2226 	0
0.0651347 	-121.322 	43.0723 	-1.21081 	0
0.065706 	-121.361 	43.0774 	-1.19902 	0
0.0662774 	-121.4 	43.0826 	-1.18723 	0
0.0668487 	-121.428 	43.0875 	-1.17543 	0
0.0674201 	-121.456 	43.0923 	-1.16374 	0
0.0679915 	-121.498 	43.0973 	-1.15241 	0
0.0685628 	-121.539 	43.1022 	-1.14109 	0
0.0691342 	-121.58 	43.1072 	-1.12976 	0
0.0697055 	-121.622 	43.1121 	-1.11843 	0
0.0702769 	-121.656 	43.1169 	-1.10711 	0
0.0708482 	-121.685 	43.1216 	-1.09584 	0
0.0714196 	-121.729 	43.127 	-1.08513 	0
0.071991 	-121.773 	43.1324 	-1.07442 	0
0.0725623 	-121.817 	43.1379 	-1.06371 	0
0.0731337 	-121.861 	43.1433 	-1.053 	0
0.073705 	-121.895 	43.1485 	-1.0423 	0
0.0742764 	-121.933 	43.1544 	-1.03181 	0
0.0748477 	-121.979 	43.1613 	-1.02164 	0
0.0754191 	-122.025 	43.1683 	-1.01148 	0
0.0759905 	-122.072 	43.1753 	-1.00131 	0
0.0765618 	-122.114 	43.1821 	-0.99115 	0
0.0771332 	-122.151 	43.189 	-0.981064 	0
0.0777045 	-122.2 	43.1972 	-0.971388 	0
0.0782759 	-122.249 	43.2053 	-0.961712 	0
0.0788472 	-122.299 	43.2135 	-0.952036 	0
0.0794186 	-122.344 	43.2215 	-0.942373 	0
0.0799899 	-122.386 	43.2295 	-0.932811 	0
0.0805613 	-122.438 	43.2376 	-0.923508 	0
0.0811327 	-122.49 	43.2456 	-0.914204 	0
0.081704 	-122.543 	43.2537 	-0.9049 	0
0.0822754 	-122.587 	43.2616 	-0.895626 	0
0.0828467 	-122.639 	43.2695 	-0.886605 	0
0.0834181 	-122.694 	43.2775 	-0.877675 	0
0.0839894 	-122.749 	43.2855 	-0.868746 	0
0.0845608 	-122.799 	43.2934 	-0.859838 	0
0.0851322 	-122.852 	43.3013 	-0.851083 	0
0.0857035 	-122.911 	43.3093 	-0.842436 	0
0.0862749 	-122.969 	43.3173 	-0.833789 	0
0.0868462 	-123.022 	43.3252 	-0.825169 	0
0.0874176 	-123.079 	43.3332 	-0.816754 	0
0.0879889 	-123.14 	43.3413 	-0.808425 	0
0.0885603 	-123.202 	43.3494 	-0.800096 	0
0.0891317 	-123.255 	43.3573 	-0.791831 	0
0.089703 	-123.32 	43.3653 	-0.783726 	0
0.0902744 	-123.384 	43.3732 	-0.775621 	0
0.0908457 	-123.443 	43.3811 	-0.767545 	0
0.0914171 	-123.507 	43.3828 	-0.759589 	0
0.0919884 	-123.574 	43.3829 	-0.751658 	0
0.0925598 	-123.637 	43.3831 	-0.743754 	0
0.0931312 	-123.703 	43.3522 	-0.735412 	0
0.0937025 	-123.773 	43.3097 	-0.726896 	0
0.0942739 	-123.837 	43.2678 	-0.718419 	0
0.0948452 	-123.907 	43.1465 	-0.70866 	0
0.0954166 	-123.979 	43.0152 	-0.698739 	0
0.0959879 	-124.045 	42.8741 	-0.688759 	0
0.0965593 	-124.117 	42.7027 	-0.678466 	0
0.0971307 	-124.186 	42.5314 	-0.66819 	0
0.097702 	-124.257 	42.3724 	-0.658263 	0
0.0982734 	-124.329 	42.2159 	-0.648406 	0
0.0988447 	-124.399 	42.0587 	-0.638593 	0
0.0994161 	-124.474 	41.9014 	-0.628782 	0
0.0999874 	-124.544 	41.7436 	-0.61913 	0
0.100559 	-124.619 	41.5857 	-0.609597 	0
0.10113 	-124.691 	41.4004 	-0.599837 	0
0.101702 	-124.765 	41.1946 	-0.589885 	0
0.102273 	-124.84 	40.7571 	-0.576871 	0
0.102844 	-124.912 	40.1531 	-0.561476 	0
0.103416 	-124.986 	38.8182 	-0.535117 	0
0.103987 	-125.052 	36.8869 	-0.500179 	0
0.104558 	-125.114 	34.5146 	-0.459203 	0
0.10513 	-125.169 	32.0054 	-0.41782 	0
0.105701 	-125.217 	29.6864 	-0.378488 	0
0.106272 	-125.261 	27.3383 	-0.338411 	0
0.106844 	-125.3 	24.9019 	-0.294933 	0
0.107415 	-125.344 	22.246 	-0.238635 	0
0.107986 	-125.42 	19.3653 	-0.164716 	0
0.108558 	-125.517 	16.7207 	-0.0999338 	0
0.109129 	-125.579 	14.6015 	-0.0647743 	0
0.109701 	-125.611 	12.7419 	-0.0401626 	0
0.110272 	-125.644 	10.9225 	-0.0167443 	0
0.110843 	-125.677 	9.22617 	0.00171978 	0
0.111415 	-125.704 	7.73862 	0.0131191 	0
0.111986 	-125.728 	6.47269 	0.0180963 	0
0.112557 	-125.744 	5.44219 	0.0171928 	0
0.113129 	-125.749 	4.51413 	0.0129833 	0
0.1137 	-125.747 	3.48791 	0.0069213 	0
