0 	-199.765 	0 	0 	0
0.000571357 	-199.654 	-5.8035 	0.124151 	0
0.00114271 	-199.504 	-5.64786 	0.230522 	0
0.00171407 	-199.412 	-5.30916 	0.324765 	0
0.00228543 	-199.378 	-4.9101 	0.408014 	0
0.00285678 	-199.392 	-4.47661 	0.481539 	0
0.00342814 	-199.445 	-4.01323 	0.54419 	0
0.0039995 	-199.527 	-3.5236 	0.59588 	0
0.00457085 	-199.629 	-3.00559 	0.635098 	0
0.00514221 	-199.741 	-2.45783 	0.660639 	0
0.00571357 	-199.849 	-1.87263 	0.670253 	0
0.00628492 	-199.939 	-1.24265 	0.662229 	0
0.00685628 	-199.987 	-0.552419 	0.634066 	0
0.00742764 	-199.959 	0.224878 	0.583201 	0
0.00799899 	-199.812 	1.14697 	0.506293 	0
0.00857035 	-199.602 	2.24927 	0.402866 	0
0.00914171 	-199.414 	3.68053 	0.255205 	0
0.00971307 	-199.193 	5.36765 	0.0688116 	0
0.0102844 	-198.72 	7.33381 	-0.143134 	0
0.0108558 	-198.051 	9.64612 	-0.361167 	0
0.0114271 	-197.322 	12.3127 	-0.569104 	0
0.0119985 	-196.555 	15.3384 	-0.757158 	0
0.0125698 	-195.885 	18.0896 	-0.891889 	0
0.0131412 	-194.843 	22.4317 	-1.03033 	0
0.0137126 	-193.883 	26.4122 	-1.09042 	0
0.0142839 	-192.908 	30.1647 	-1.11166 	0
0.0148553 	-191.977 	32.9946 	-1.14805 	0
0.0154266 	-191.001 	35.1105 	-1.19552 	0
0.015998 	-189.957 	36.3287 	-1.22825 	0
0.0165693 	-188.902 	37.0493 	-1.24991 	0
0.0171407 	-187.843 	37.6404 	-1.26747 	0
0.0177121 	-186.781 	38.1764 	-1.28276 	0
0.0182834 	-185.72 	38.6651 	-1.29609 	0
0.0188548 	-184.651 	39.1059 	-1.30714 	0
0.0194261 	-183.593 	39.5107 	-1.31672 	0
0.0199975 	-182.541 	39.8994 	-1.32564 	0
0.0205688 	-181.485 	40.2446 	-1.33219 	0
0.0211402 	-180.443 	40.5855 	-1.33884 	0
0.0217116 	-179.401 	40.8912 	-1.34348 	0
0.0222829 	-178.371 	41.1978 	-1.34847 	0
0.0228543 	-177.347 	41.471 	-1.35143 	0
0.0234256 	-176.324 	41.7419 	-1.35422 	0
0.023997 	-175.323 	42.0009 	-1.35681 	0
0.0245683 	-174.323 	42.2412 	-1.35805 	0
0.0251397 	-173.327 	42.4816 	-1.35943 	0
0.0257111 	-172.35 	42.7082 	-1.36021 	0
0.0262824 	-171.378 	42.9213 	-1.35991 	0
0.0268538 	-170.405 	43.1344 	-1.35962 	0
0.0274251 	-169.453 	43.3419 	-1.35959 	0
0.0279965 	-168.514 	43.525 	-1.358 	0
0.0285678 	-167.575 	43.7081 	-1.35642 	0
0.0291392 	-166.641 	43.8915 	-1.35502 	0
0.0297106 	-165.726 	44.0504 	-1.35276 	0
0.0302819 	-164.826 	44.1729 	-1.3486 	0
0.0308533 	-163.926 	44.2955 	-1.34444 	0
0.0314246 	-163.026 	44.4182 	-1.34033 	0
0.031996 	-162.139 	44.5366 	-1.33661 	0
0.0325673 	-161.298 	44.5586 	-1.32891 	0
0.0331387 	-160.457 	44.5805 	-1.32122 	0
0.0337101 	-159.616 	44.6025 	-1.31353 	0
0.0342814 	-158.776 	44.6247 	-1.30599 	0
0.0348528 	-157.947 	44.6449 	-1.29884 	0
0.0354241 	-157.185 	44.621 	-1.28964 	0
0.0359955 	-156.424 	44.5971 	-1.28044 	0
0.0365668 	-155.663 	44.5732 	-1.27125 	0
0.0371382 	-154.902 	44.5493 	-1.26205 	0
0.0377095 	-154.144 	44.5255 	-1.25327 	0
0.0382809 	-153.412 	44.5045 	-1.24448 	0
0.0388523 	-152.731 	44.4886 	-1.23526 	0
0.0394236 	-152.049 	44.4728 	-1.22604 	0
0.039995 	-151.368 	44.4569 	-1.21682 	0
0.0405663 	-150.686 	44.441 	-1.20759 	0
0.0411377 	-150.006 	44.4251 	-1.19854 	0
0.041709 	-149.327 	44.4093 	-1.18986 	0
0.0422804 	-148.708 	44.3949 	-1.18073 	0
0.0428518 	-148.106 	44.3809 	-1.17146 	0
0.0434231 	-147.505 	44.367 	-1.1622 	0
0.0439945 	-146.903 	44.353 	-1.15293 	0
0.0445658 	-146.302 	44.3391 	-1.14366 	0
0.0451372 	-145.7 	44.3251 	-1.1344 	0
0.0457085 	-145.1 	44.3112 	-1.12561 	0
0.0462799 	-144.519 	44.2978 	-1.11671 	0
0.0468513 	-143.997 	44.286 	-1.10745 	0
0.0474226 	-143.476 	44.2741 	-1.09819 	0
0.047994 	-142.954 	44.2623 	-1.08894 	0
0.0485653 	-142.432 	44.2505 	-1.07968 	0
0.0491367 	-141.91 	44.2387 	-1.07043 	0
0.049708 	-141.388 	44.2268 	-1.06117 	0
0.0502794 	-140.866 	44.215 	-1.05218 	0
0.0508508 	-140.345 	44.2032 	-1.04333 	0
0.0514221 	-139.871 	44.1926 	-1.03431 	0
0.0519935 	-139.427 	44.1829 	-1.02517 	0
0.0525648 	-138.983 	44.1731 	-1.01602 	0
0.0531362 	-138.538 	44.1633 	-1.00688 	0
0.0537075 	-138.094 	44.1536 	-0.99774 	0
0.0542789 	-137.65 	44.1438 	-0.988598 	0
0.0548503 	-137.206 	44.1341 	-0.979456 	0
0.0554216 	-136.762 	44.1243 	-0.970324 	0
0.055993 	-136.317 	44.1145 	-0.961535 	0
0.0565643 	-135.873 	44.1047 	-0.952747 	0
0.0571357 	-135.489 	44.0965 	-0.943977 	0
0.057707 	-135.128 	44.0889 	-0.935214 	0
0.0582784 	-134.768 	44.0814 	-0.926451 	0
0.0588497 	-134.407 	44.0738 	-0.917688 	0
0.0594211 	-134.046 	44.0662 	-0.908926 	0
0.0599925 	-133.686 	44.0586 	-0.900163 	0
0.0605638 	-133.325 	44.051 	-0.8914 	0
0.0611352 	-132.964 	44.0434 	-0.882637 	0
0.0617065 	-132.604 	44.0358 	-0.873881 	0
0.0622779 	-132.242 	44.0282 	-0.865409 	0
0.0628492 	-131.88 	44.0206 	-0.856937 	0
0.0634206 	-131.544 	44.0137 	-0.848426 	0
0.063992 	-131.247 	44.0078 	-0.839852 	0
0.0645633 	-130.95 	44.002 	-0.831278 	0
0.0651347 	-130.653 	43.9962 	-0.822704 	0
0.065706 	-130.356 	43.9903 	-0.81413 	0
0.0662774 	-130.059 	43.9845 	-0.805556 	0
0.0668487 	-129.762 	43.9787 	-0.796982 	0
0.0674201 	-129.465 	43.9728 	-0.788408 	0
0.0679915 	-129.168 	43.967 	-0.779834 	0
0.0685628 	-128.87 	43.9612 	-0.771429 	0
0.0691342 	-128.572 	43.9553 	-0.763102 	0
0.0697055 	-128.276 	43.9495 	-0.754761 	0
0.0702769 	-128.024 	43.9451 	-0.746141 	0
0.0708482 	-127.772 	43.9406 	-0.73752 	0
0.0714196 	-127.521 	43.9362 	-0.728899 	0
0.071991 	-127.269 	43.9317 	-0.720278 	0
0.0725623 	-127.017 	43.9273 	-0.711658 	0
0.0731337 	-126.766 	43.9229 	-0.703037 	0
0.073705 	-126.514 	43.9184 	-0.694416 	0
0.0742764 	-126.262 	43.914 	-0.685896 	0
0.0748477 	-126.009 	43.9095 	-0.677495 	0
0.0754191 	-125.763 	43.9053 	-0.669084 	0
0.0759905 	-125.552 	43.9022 	-0.660614 	0
0.0765618 	-125.341 	43.899 	-0.652144 	0
0.0771332 	-125.13 	43.8959 	-0.643675 	0
0.0777045 	-124.92 	43.8928 	-0.635205 	0
0.0782759 	-124.709 	43.8897 	-0.626735 	0
0.0788472 	-124.498 	43.8866 	-0.618266 	0
0.0794186 	-124.287 	43.8835 	-0.609901 	0
0.0799899 	-124.075 	43.8803 	-0.601627 	0
0.0805613 	-123.881 	43.8778 	-0.59331 	0
0.0811327 	-123.702 	43.8759 	-0.584953 	0
0.081704 	-123.524 	43.874 	-0.576597 	0
0.0822754 	-123.346 	43.8721 	-0.56824 	0
0.0828467 	-123.167 	43.8702 	-0.559884 	0
0.0834181 	-122.989 	43.8683 	-0.551527 	0
0.0839894 	-122.81 	43.8664 	-0.543305 	0
0.0845608 	-122.631 	43.8644 	-0.535128 	0
0.0851322 	-122.478 	43.8637 	-0.526867 	0
0.0857035 	-122.326 	43.8629 	-0.518606 	0
0.0862749 	-122.174 	43.8622 	-0.510345 	0
0.0868462 	-122.021 	43.8615 	-0.502084 	0
0.0874176 	-121.869 	43.8607 	-0.493822 	0
0.0879889 	-121.716 	43.86 	-0.485723 	0
0.0885603 	-121.572 	43.8597 	-0.477587 	0
0.0891317 	-121.441 	43.8602 	-0.469397 	0
0.089703 	-121.31 	43.8607 	-0.461208 	0
0.0902744 	-121.179 	43.8612 	-0.453019 	0
0.0908457 	-121.048 	43.8616 	-0.444837 	0
0.0914171 	-120.917 	43.8621 	-0.436805 	0
0.0919884 	-120.798 	43.8635 	-0.428705 	0
0.0925598 	-120.685 	43.8653 	-0.420576 	0
0.0931312 	-120.571 	43.8671 	-0.412448 	0
0.0937025 	-120.458 	43.8689 	-0.40432 	0
0.0942739 	-120.344 	43.8707 	-0.396325 	0
0.0948452 	-120.242 	43.8736 	-0.388273 	0
0.0954166 	-120.143 	43.8769 	-0.380193 	0
0.0959879 	-120.045 	43.8802 	-0.372113 	0
0.0965593 	-119.946 	43.8835 	-0.364088 	0
0.0971307 	-119.852 	43.8875 	-0.356116 	0
0.097702 	-119.766 	43.8925 	-0.348076 	0
0.0982734 	-119.68 	43.8976 	-0.340037 	0
0.0988447 	-119.594 	43.9026 	-0.332062 	0
0.0994161 	-119.514 	43.9088 	-0.324105 	0
0.0999874 	-119.439 	43.9159 	-0.316103 	0
0.100559 	-119.364 	43.923 	-0.308104 	0
0.10113 	-119.291 	43.9306 	-0.300214 	0
0.101702 	-119.225 	43.94 	-0.292239 	0
0.102273 	-119.159 	43.9494 	-0.284268 	0
0.102844 	-119.096 	43.9598 	-0.276395 	0
0.103416 	-119.038 	43.9718 	-0.268457 	0
0.103987 	-118.98 	43.9839 	-0.260577 	0
0.104558 	-118.927 	43.9983 	-0.25267 	0
0.10513 	-118.876 	44.0132 	-0.244764 	0
0.105701 	-118.828 	44.0301 	-0.236915 	0
0.106272 	-118.783 	44.0482 	-0.229056 	0
0.106844 	-118.741 	44.0686 	-0.221211 	0
0.107415 	-118.701 	44.09 	-0.213382 	0
0.107986 	-118.665 	44.1147 	-0.205527 	0
0.108558 	-118.632 	44.1413 	-0.19776 	0
0.109129 	-118.601 	44.1706 	-0.189965 	0
0.109701 	-118.572 	44.1952 	-0.18216 	0
0.110272 	-118.546 	44.103 	-0.1734 	0
0.110843 	-118.519 	43.3355 	-0.15395 	0
0.111415 	-118.504 	41.3443 	-0.117111 	0
0.111986 	-118.499 	38.4582 	-0.0783319 	0
0.112557 	-118.506 	35.1218 	-0.0455491 	0
0.113129 	-118.527 	30.4962 	-0.0191629 	0
0.1137 	-118.548 	1.40075e-10 	-5.20917e-15 	0
