0.0131412 	-71.0521 	21.3493 	-0.0200235 	0
0.0137126 	-71.0321 	25.7838 	-0.0459193 	0
0.0142839 	-70.9685 	29.1979 	-0.0611899 	0
0.0148553 	-70.8742 	32.2483 	-0.0668495 	0
0.0154266 	-70.7595 	34.3286 	-0.0773755 	0
0.015998 	-70.6325 	35.4132 	-0.097446 	0
0.0165693 	-70.4854 	36.2255 	-0.118421 	0
0.0171407 	-70.3173 	36.923 	-0.138999 	0
0.0177121 	-70.1287 	37.5411 	-0.159221 	0
0.0182834 	-69.9217 	38.1015 	-0.179141 	0
0.0188548 	-69.6969 	38.6045 	-0.198428 	0
0.0194261 	-69.4461 	39.0629 	-0.217585 	0
0.0199975 	-69.1887 	39.5019 	-0.236386 	0
0.0205688 	-68.8974 	39.8905 	-0.254758 	0
0.0211402 	-68.6013 	40.2729 	-0.273012 	0
0.0217116 	-68.2754 	40.6152 	-0.290657 	0
0.0222829 	-67.9528 	40.9576 	-0.308181 	0
0.0228543 	-67.5833 	41.2616 	-0.3253 	0
0.0234256 	-67.2214 	41.5634 	-0.342062 	0
0.023997 	-66.8292 	41.85 	-0.358801 	0
0.0245683 	-66.4252 	42.1161 	-0.374739 	0
0.0251397 	-66.0212 	42.3822 	-0.390676 	0
0.0257111 	-65.5779 	42.6314 	-0.4064 	0
0.0262824 	-65.1292 	42.8661 	-0.42132 	0
0.0268538 	-64.6805 	43.1008 	-0.43624 	0
0.0274251 	-64.2124 	43.329 	-0.451107 	0
0.0279965 	-63.7099 	43.5338 	-0.465143 	0
0.0285678 	-63.2166 	43.7388 	-0.479032 	0
0.0291392 	-62.7233 	43.9438 	-0.492922 	0
0.0297106 	-62.1912 	44.1254 	-0.506313 	0
0.0302819 	-61.6513 	44.2753 	-0.518429 	0
0.0308533 	-61.1136 	44.4252 	-0.530518 	0
0.0314246 	-60.576 	44.5752 	-0.542608 	0
0.031996 	-60.0339 	44.7192 	-0.55458 	0
0.0325673 	-59.4415 	44.7622 	-0.564333 	0
0.0331387 	-58.8722 	44.806 	-0.573919 	0
0.0337101 	-58.303 	44.8498 	-0.583505 	0
0.0342814 	-57.7338 	44.8936 	-0.59309 	0
0.0348528 	-57.161 	44.9338 	-0.602571 	0
0.0354241 	-56.5546 	44.9181 	-0.61033 	0
0.0359955 	-55.9733 	44.903 	-0.617984 	0
0.0365668 	-55.392 	44.8879 	-0.625638 	0
0.0371382 	-54.8107 	44.8727 	-0.633293 	0
0.0377095 	-54.2294 	44.8576 	-0.640947 	0
0.0382809 	-53.6331 	44.8431 	-0.648174 	0
0.0388523 	-53.0344 	44.8303 	-0.654491 	0
0.0394236 	-52.4506 	44.8178 	-0.660773 	0
0.039995 	-51.8668 	44.8052 	-0.667055 	0
0.0405663 	-51.283 	44.7927 	-0.673337 	0
0.0411377 	-50.6993 	44.7802 	-0.679619 	0
0.041709 	-50.1155 	44.7676 	-0.685901 	0
0.0422804 	-49.5077 	44.7548 	-0.691129 	0
0.0428518 	-48.9298 	44.7426 	-0.696016 	0
0.0434231 	-48.3525 	44.7304 	-0.700902 	0
0.0439945 	-47.7752 	44.7183 	-0.705789 	0
0.0445658 	-47.1978 	44.7061 	-0.710676 	0
0.0451372 	-46.6205 	44.6939 	-0.715562 	0
0.0457085 	-46.0432 	44.6817 	-0.720449 	0
0.0462799 	-45.4619 	44.6695 	-0.724972 	0
0.0468513 	-44.8795 	44.6574 	-0.728384 	0
0.0474226 	-44.3183 	44.6456 	-0.731804 	0
0.047994 	-43.7571 	44.6339 	-0.735225 	0
0.0485653 	-43.1959 	44.6222 	-0.738646 	0
0.0491367 	-42.6347 	44.6105 	-0.742066 	0
0.049708 	-42.0735 	44.5988 	-0.745487 	0
0.0502794 	-41.5123 	44.587 	-0.748907 	0
0.0508508 	-40.9511 	44.5753 	-0.752328 	0
0.0514221 	-40.3863 	44.5636 	-0.75479 	0
0.0519935 	-39.8357 	44.5521 	-0.756684 	0
0.0525648 	-39.2968 	44.5409 	-0.758593 	0
0.0531362 	-38.758 	44.5296 	-0.760502 	0
0.0537075 	-38.2191 	44.5184 	-0.762412 	0
0.0542789 	-37.6803 	44.5072 	-0.764321 	0
0.0548503 	-37.1414 	44.496 	-0.76623 	0
0.0554216 	-36.6025 	44.4848 	-0.76814 	0
0.055993 	-36.0637 	44.4735 	-0.770049 	0
0.0565643 	-35.5248 	44.4623 	-0.771958 	0
0.0571357 	-34.9992 	44.4513 	-0.772644 	0
0.057707 	-34.4916 	44.4407 	-0.772904 	0
0.0582784 	-33.995 	44.4304 	-0.773193 	0
0.0588497 	-33.4984 	44.42 	-0.773482 	0
0.0594211 	-33.0018 	44.4096 	-0.773771 	0
0.0599925 	-32.5053 	44.3993 	-0.774061 	0
0.0605638 	-32.0087 	44.3889 	-0.77435 	0
0.0611352 	-31.5121 	44.3786 	-0.774639 	0
0.0617065 	-31.0155 	44.3682 	-0.774929 	0
0.0622779 	-30.5189 	44.3579 	-0.775218 	0
0.0628492 	-30.0223 	44.3475 	-0.775507 	0
0.0634206 	-29.5296 	44.3372 	-0.775142 	0
0.063992 	-29.0473 	44.327 	-0.773756 	0
0.0645633 	-28.5826 	44.3173 	-0.772449 	0
0.0651347 	-28.1179 	44.3076 	-0.771141 	0
0.065706 	-27.6532 	44.2979 	-0.769834 	0
0.0662774 	-27.1886 	44.2882 	-0.768526 	0
0.0668487 	-26.7239 	44.2785 	-0.767219 	0
0.0674201 	-26.2592 	44.2688 	-0.765911 	0
0.0679915 	-25.7945 	44.2591 	-0.764603 	0
0.0685628 	-25.3298 	44.2494 	-0.763296 	0
0.0691342 	-24.8652 	44.2397 	-0.761988 	0
0.0697055 	-24.4005 	44.2299 	-0.760597 	0
0.0702769 	-23.9361 	44.2202 	-0.757491 	0
0.0708482 	-23.4932 	44.211 	-0.754546 	0
0.0714196 	-23.0503 	44.2018 	-0.751601 	0
0.071991 	-22.6073 	44.1926 	-0.748657 	0
0.0725623 	-22.1644 	44.1834 	-0.745712 	0
0.0731337 	-21.7214 	44.1742 	-0.742767 	0
0.073705 	-21.2785 	44.165 	-0.739823 	0
0.0742764 	-20.8356 	44.1558 	-0.736878 	0
0.0748477 	-20.3926 	44.1466 	-0.733933 	0
0.0754191 	-19.9519 	44.1374 	-0.730727 	0
0.0759905 	-19.5282 	44.1287 	-0.726154 	0
0.0765618 	-19.12 	44.1204 	-0.721763 	0
0.0771332 	-18.7118 	44.1121 	-0.717371 	0
0.0777045 	-18.3036 	44.1039 	-0.71298 	0
0.0782759 	-17.8953 	44.0956 	-0.708589 	0
0.0788472 	-17.4871 	44.0873 	-0.704198 	0
0.0794186 	-17.0789 	44.079 	-0.699806 	0
0.0799899 	-16.6707 	44.0707 	-0.695415 	0
0.0805613 	-16.2696 	44.0627 	-0.690192 	0
0.0811327 	-15.8895 	44.0553 	-0.684463 	0
0.081704 	-15.5147 	44.0481 	-0.678817 	0
0.0822754 	-15.1398 	44.0408 	-0.673172 	0
0.0828467 	-14.765 	44.0336 	-0.667526 	0
0.0834181 	-14.3901 	44.0263 	-0.66188 	0
0.0839894 	-14.0153 	44.0191 	-0.656235 	0
0.0845608 	-13.6404 	44.0119 	-0.650585 	0
0.0851322 	-13.2851 	44.0054 	-0.643584 	0
0.0857035 	-12.9427 	43.9994 	-0.636857 	0
0.0862749 	-12.6003 	43.9934 	-0.63013 	0
0.0868462 	-12.2579 	43.9873 	-0.623403 	0
0.0874176 	-11.9155 	43.9813 	-0.616676 	0
0.0879889 	-11.573 	43.9753 	-0.609949 	0
0.0885603 	-11.2361 	43.9696 	-0.60262 	0
0.0891317 	-10.9212 	43.9648 	-0.594913 	0
0.089703 	-10.6092 	43.9602 	-0.587282 	0
0.0902744 	-10.2972 	43.9555 	-0.579651 	0
0.0908457 	-9.98517 	43.9509 	-0.572021 	0
0.0914171 	-9.67317 	43.9462 	-0.56439 	0
0.0919884 	-9.37223 	43.9424 	-0.555944 	0
0.0925598 	-9.08833 	43.9393 	-0.547563 	0
0.0931312 	-8.80442 	43.9361 	-0.539181 	0
0.0937025 	-8.52051 	43.933 	-0.530799 	0
0.0942739 	-8.23661 	43.9299 	-0.522417 	0
0.0948452 	-7.96368 	43.9279 	-0.513325 	0
0.0954166 	-7.70537 	43.9265 	-0.504327 	0
0.0959879 	-7.44706 	43.9252 	-0.495329 	0
0.0965593 	-7.18875 	43.9239 	-0.486331 	0
0.0971307 	-6.93326 	43.9231 	-0.47692 	0
0.097702 	-6.69767 	43.9238 	-0.467395 	0
0.0982734 	-6.46261 	43.9245 	-0.457891 	0
0.0988447 	-6.22756 	43.9251 	-0.448388 	0
0.0994161 	-5.99929 	43.927 	-0.43842 	0
0.0999874 	-5.78536 	43.9299 	-0.428503 	0
0.100559 	-5.57143 	43.9329 	-0.418587 	0
0.10113 	-5.35879 	43.9364 	-0.408411 	0
0.101702 	-5.16335 	43.942 	-0.398121 	0
0.102273 	-4.96864 	43.9475 	-0.387868 	0
0.102844 	-4.77668 	43.954 	-0.377324 	0
0.103416 	-4.59945 	43.9624 	-0.366797 	0
0.103987 	-4.42222 	43.9707 	-0.356271 	0
0.104558 	-4.25532 	43.9816 	-0.345386 	0
0.10513 	-4.09392 	43.9931 	-0.334639 	0
0.105701 	-3.93919 	44.0066 	-0.323624 	0
0.106272 	-3.79205 	44.0214 	-0.312701 	0
0.106844 	-3.65209 	44.0385 	-0.301539 	0
0.107415 	-3.51774 	44.0568 	-0.290432 	0
0.107986 	-3.39359 	44.0784 	-0.279173 	0
0.108558 	-3.27511 	44.102 	-0.267836 	0
0.109129 	-3.16386 	44.1281 	-0.256456 	0
0.109701 	-3.06056 	44.1572 	-0.245037 	0
0.110272 	-2.96519 	44.1897 	-0.23357 	0
0.110843 	-2.87724 	44.1958 	-0.222078 	0
0.111415 	-2.79209 	43.7486 	-0.203343 	0
0.111986 	-2.72727 	41.1712 	-0.148587 	0
0.112557 	-2.69972 	37.0481 	-0.087664 	0
0.113129 	-2.71147 	31.6262 	-0.0371773 	0
0.1137 	-2.74893 	1.39135e-10 	-1.02069e-14 	0
