0 	41.7982 	0 	0 	0
0.000571357 	40.4242 	15.6532 	-0.394282 	0
0.00114271 	39.1161 	15.5407 	-0.794937 	0
0.00171407 	38.4531 	14.5496 	-1.19382 	0
0.00228543 	38.1068 	13.4268 	-1.61599 	0
0.00285678 	37.9172 	12.4382 	-2.09124 	0
0.00342814 	37.8629 	11.8108 	-2.57043 	0
0.0039995 	37.4743 	11.6787 	-3.03 	0
0.00457085 	36.3329 	12.1063 	-3.43089 	0
0.00514221 	34.5562 	12.8601 	-3.76168 	0
0.00571357 	32.2866 	13.7476 	-4.04521 	0
0.00628492 	29.6849 	14.6519 	-4.29061 	0
0.00685628 	26.8165 	15.5304 	-4.50178 	0
0.00742764 	23.7066 	16.3689 	-4.68154 	0
0.00799899 	20.4782 	17.1306 	-4.82768 	0
0.00857035 	17.1143 	17.8446 	-4.9488 	0
0.00914171 	13.712 	18.4829 	-5.04266 	0
0.00971307 	10.2587 	19.0751 	-5.11499 	0
0.0102844 	6.89527 	19.5978 	-5.16872 	0
0.0108558 	3.78259 	20.0674 	-5.19591 	0
0.0114271 	0.677898 	20.4944 	-5.21075 	0
0.0119985 	-3.05708 	20.8782 	-5.27146 	0
0.0125698 	-4.75457 	21.1632 	-5.26842 	0
0.0131412 	23.3033 	23.2911 	-5.10281 	0
0.0137126 	24.7184 	26.7812 	-4.84629 	0
0.0142839 	22.8686 	28.2056 	-4.68247 	0
0.0148553 	21.0384 	29.1661 	-4.57805 	0
0.0154266 	18.7141 	30.0277 	-4.47006 	0
0.015998 	15.9675 	30.8029 	-4.36634 	0
0.0165693 	12.968 	31.5213 	-4.26355 	0
0.0171407 	9.77012 	32.1881 	-4.1639 	0
0.0177121 	6.43732 	32.8122 	-4.06768 	0
0.0182834 	3.06738 	33.4012 	-3.9705 	0
0.0188548 	-0.366463 	33.954 	-3.87665 	0
0.0194261 	-3.86597 	34.4772 	-3.79082 	0
0.0199975 	-7.27117 	34.9825 	-3.69748 	0
0.0205688 	-10.7358 	35.4509 	-3.61768 	0
0.0211402 	-14.1051 	35.9106 	-3.53101 	0
0.0217116 	-17.4693 	36.3378 	-3.45661 	0
0.0222829 	-20.7192 	36.7606 	-3.37196 	0
0.0228543 	-23.9903 	37.1522 	-3.30753 	0
0.0234256 	-27.0826 	37.5353 	-3.22924 	0
0.023997 	-30.1863 	37.9043 	-3.16152 	0
0.0245683 	-33.1651 	38.2488 	-3.0977 	0
0.0251397 	-36.0489 	38.5903 	-3.02642 	0
0.0257111 	-38.92 	38.909 	-2.9674 	0
0.0262824 	-41.644 	39.2034 	-2.90977 	0
0.0268538 	-44.2728 	39.4954 	-2.84529 	0
0.0274251 	-46.8857 	39.7739 	-2.78509 	0
0.0279965 	-49.4089 	40.0007 	-2.73906 	0
0.0285678 	-51.7432 	40.2242 	-2.68044 	0
0.0291392 	-54.0774 	40.4478 	-2.62183 	0
0.0297106 	-56.3555 	40.6354 	-2.56999 	0
0.0302819 	-58.5172 	40.7708 	-2.52564 	0
0.0308533 	-60.5155 	40.904 	-2.47096 	0
0.0314246 	-62.5138 	41.0371 	-2.41627 	0
0.031996 	-64.5013 	41.1662 	-2.36242 	0
0.0325673 	-66.3042 	41.2247 	-2.32308 	0
0.0331387 	-67.9962 	41.2809 	-2.27699 	0
0.0337101 	-69.6268 	41.3356 	-2.22715 	0
0.0342814 	-71.2575 	41.3904 	-2.17732 	0
0.0348528 	-72.8752 	41.4446 	-2.12848 	0
0.0354241 	-74.2937 	41.4882 	-2.09508 	0
0.0359955 	-75.649 	41.53 	-2.05807 	0
0.0365668 	-76.9251 	41.5695 	-2.01653 	0
0.0371382 	-78.2012 	41.609 	-1.97499 	0
0.0377095 	-79.4773 	41.6486 	-1.93345 	0
0.0382809 	-80.6886 	41.6898 	-1.89649 	0
0.0388523 	-81.7714 	41.7343 	-1.86861 	0
0.0394236 	-82.7995 	41.7774 	-1.83788 	0
0.039995 	-83.7687 	41.8188 	-1.80407 	0
0.0405663 	-84.7378 	41.8603 	-1.77027 	0
0.0411377 	-85.707 	41.9017 	-1.73647 	0
0.041709 	-86.6761 	41.9432 	-1.70267 	0
0.0422804 	-87.5084 	41.9769 	-1.67654 	0
0.0428518 	-88.3002 	42.0083 	-1.65267 	0
0.0434231 	-89.0364 	42.0383 	-1.62613 	0
0.0439945 	-89.742 	42.0675 	-1.59811 	0
0.0445658 	-90.4476 	42.0968 	-1.57009 	0
0.0451372 	-91.1532 	42.126 	-1.54207 	0
0.0457085 	-91.8588 	42.1553 	-1.51405 	0
0.0462799 	-92.5252 	42.1833 	-1.48795 	0
0.0468513 	-93.0714 	42.2074 	-1.4677 	0
0.0474226 	-93.6176 	42.2315 	-1.44746 	0
0.047994 	-94.1136 	42.2544 	-1.42495 	0
0.0485653 	-94.5977 	42.2769 	-1.4019 	0
0.0491367 	-95.0819 	42.2995 	-1.37885 	0
0.049708 	-95.566 	42.322 	-1.35579 	0
0.0502794 	-96.0501 	42.3446 	-1.33274 	0
0.0508508 	-96.5342 	42.3671 	-1.30969 	0
0.0514221 	-96.936 	42.3871 	-1.29021 	0
0.0519935 	-97.2869 	42.4054 	-1.27293 	0
0.0525648 	-97.6377 	42.4238 	-1.25566 	0
0.0531362 	-97.9535 	42.4412 	-1.23689 	0
0.0537075 	-98.2617 	42.4585 	-1.21781 	0
0.0542789 	-98.5699 	42.4757 	-1.19872 	0
0.0548503 	-98.8781 	42.4929 	-1.17964 	0
0.0554216 	-99.1863 	42.5102 	-1.16056 	0
0.055993 	-99.4945 	42.5274 	-1.14147 	0
0.0565643 	-99.8027 	42.5447 	-1.12239 	0
0.0571357 	-100.032 	42.5594 	-1.1067 	0
0.057707 	-100.232 	42.5732 	-1.09229 	0
0.0582784 	-100.432 	42.587 	-1.07788 	0
0.0588497 	-100.617 	42.6004 	-1.06289 	0
0.0594211 	-100.789 	42.6135 	-1.04738 	0
0.0599925 	-100.961 	42.6265 	-1.03186 	0
0.0605638 	-101.133 	42.6395 	-1.01635 	0
0.0611352 	-101.306 	42.6525 	-1.00083 	0
0.0617065 	-101.478 	42.6656 	-0.985319 	0
0.0622779 	-101.65 	42.6786 	-0.969804 	0
0.0628492 	-101.822 	42.6916 	-0.954289 	0
0.0634206 	-101.969 	42.7039 	-0.939951 	0
0.063992 	-102.075 	42.7149 	-0.927485 	0
0.0645633 	-102.181 	42.726 	-0.915019 	0
0.0651347 	-102.283 	42.7369 	-0.902425 	0
0.065706 	-102.371 	42.7473 	-0.88926 	0
0.0662774 	-102.459 	42.7578 	-0.876095 	0
0.0668487 	-102.546 	42.7682 	-0.862931 	0
0.0674201 	-102.634 	42.7787 	-0.849766 	0
0.0679915 	-102.721 	42.7891 	-0.836601 	0
0.0685628 	-102.809 	42.7996 	-0.823436 	0
0.0691342 	-102.896 	42.81 	-0.810271 	0
0.0697055 	-102.982 	42.8204 	-0.79719 	0
0.0702769 	-103.035 	42.8299 	-0.785846 	0
0.0708482 	-103.088 	42.8394 	-0.774503 	0
0.0714196 	-103.138 	42.8488 	-0.763038 	0
0.071991 	-103.178 	42.8579 	-0.751215 	0
0.0725623 	-103.217 	42.8669 	-0.739392 	0
0.0731337 	-103.257 	42.8759 	-0.727569 	0
0.073705 	-103.297 	42.885 	-0.715745 	0
0.0742764 	-103.336 	42.894 	-0.703922 	0
0.0748477 	-103.376 	42.9031 	-0.692099 	0
0.0754191 	-103.413 	42.912 	-0.680514 	0
0.0759905 	-103.436 	42.9204 	-0.670229 	0
0.0765618 	-103.459 	42.9288 	-0.659944 	0
0.0771332 	-103.474 	42.937 	-0.649411 	0
0.0777045 	-103.487 	42.945 	-0.638779 	0
0.0782759 	-103.5 	42.953 	-0.628148 	0
0.0788472 	-103.513 	42.961 	-0.617517 	0
0.0794186 	-103.526 	42.9691 	-0.606885 	0
0.0799899 	-103.539 	42.9771 	-0.596254 	0
0.0805613 	-103.548 	42.985 	-0.586206 	0
0.0811327 	-103.555 	42.9928 	-0.576679 	0
0.081704 	-103.559 	43.0004 	-0.567044 	0
0.0822754 	-103.558 	43.0079 	-0.557249 	0
0.0828467 	-103.557 	43.0154 	-0.547454 	0
0.0834181 	-103.557 	43.0228 	-0.537659 	0
0.0839894 	-103.556 	43.0303 	-0.527864 	0
0.0845608 	-103.555 	43.0378 	-0.51807 	0
0.0851322 	-103.554 	43.0453 	-0.509117 	0
0.0857035 	-103.552 	43.0528 	-0.500131 	0
0.0862749 	-103.545 	43.0601 	-0.490958 	0
0.0868462 	-103.537 	43.0674 	-0.481784 	0
0.0874176 	-103.53 	43.0746 	-0.472611 	0
0.0879889 	-103.523 	43.0819 	-0.463437 	0
0.0885603 	-103.517 	43.0893 	-0.454545 	0
0.0891317 	-103.512 	43.097 	-0.446014 	0
0.089703 	-103.503 	43.1044 	-0.437327 	0
0.0902744 	-103.494 	43.1118 	-0.428607 	0
0.0908457 	-103.484 	43.1192 	-0.419887 	0
0.0914171 	-103.474 	43.1265 	-0.411167 	0
0.0919884 	-103.467 	43.1344 	-0.402815 	0
0.0925598 	-103.461 	43.1424 	-0.394561 	0
0.0931312 	-103.451 	43.1502 	-0.386189 	0
0.0937025 	-103.441 	43.158 	-0.377818 	0
0.0942739 	-103.431 	43.1659 	-0.369446 	0
0.0948452 	-103.424 	43.1744 	-0.361374 	0
0.0954166 	-103.417 	43.1831 	-0.353343 	0
0.0959879 	-103.408 	43.1917 	-0.345234 	0
0.0965593 	-103.399 	43.2003 	-0.337125 	0
0.0971307 	-103.392 	43.2094 	-0.329142 	0
0.097702 	-103.386 	43.2193 	-0.321341 	0
0.0982734 	-103.379 	43.2291 	-0.313438 	0
0.0988447 	-103.371 	43.2388 	-0.305534 	0
0.0994161 	-103.366 	43.2495 	-0.297797 	0
0.0999874 	-103.361 	43.2609 	-0.290102 	0
0.100559 	-103.355 	43.2722 	-0.282358 	0
0.10113 	-103.35 	43.284 	-0.274678 	0
0.101702 	-103.346 	43.2974 	-0.267136 	0
0.102273 	-103.342 	43.3106 	-0.25952 	0
0.102844 	-103.339 	43.3247 	-0.251984 	0
0.103416 	-103.336 	43.3403 	-0.244507 	0
0.103987 	-103.333 	43.3558 	-0.236985 	0
0.104558 	-103.333 	43.3737 	-0.229616 	0
0.10513 	-103.331 	43.3918 	-0.222184 	0
0.105701 	-103.331 	43.4119 	-0.214859 	0
0.106272 	-103.331 	43.433 	-0.207487 	0
0.106844 	-103.332 	43.4564 	-0.200198 	0
0.107415 	-103.333 	43.4807 	-0.192878 	0
0.107986 	-103.335 	43.5083 	-0.185718 	0
0.108558 	-103.338 	43.5374 	-0.178495 	0
0.109129 	-103.341 	43.547 	-0.171214 	0
0.109701 	-103.344 	43.4239 	-0.162641 	0
0.110272 	-103.345 	42.7421 	-0.145651 	0
0.110843 	-103.349 	41.1319 	-0.115332 	0
0.111415 	-103.358 	38.9002 	-0.0825501 	0
0.111986 	-103.372 	36.3343 	-0.0538434 	0
0.112557 	-103.39 	33.4027 	-0.0307492 	0
0.113129 	-103.411 	29.114 	-0.012464 	0
0.1137 	-103.426 	1.25106e-10 	-2.91382e-15 	0
