0 	-31.9011 	0 	0 	0
0.000571357 	-31.9143 	25.0222 	0.0422111 	0
0.00114271 	-31.8031 	31.1232 	0.224158 	0
0.00171407 	-31.7131 	34.5969 	0.566151 	0
0.00228543 	-31.8877 	36.7984 	0.995288 	0
0.00285678 	-32.4835 	38.2198 	1.45947 	0
0.00342814 	-33.525 	39.064 	1.92369 	0
0.0039995 	-34.8225 	39.4801 	2.36456 	0
0.00457085 	-36.2998 	39.5719 	2.77728 	0
0.00514221 	-38.095 	39.4284 	3.16152 	0
0.00571357 	-40.0238 	39.1308 	3.51825 	0
0.00628492 	-42.0467 	38.7274 	3.84837 	0
0.00685628 	-44.1736 	38.2455 	4.15058 	0
0.00742764 	-46.3429 	37.6956 	4.42366 	0
0.00799899 	-48.4701 	37.0451 	4.66152 	0
0.00857035 	-50.5603 	36.2986 	4.87207 	0
0.00914171 	-52.556 	35.44 	5.05559 	0
0.00971307 	-54.4131 	34.4754 	5.22058 	0
0.0102844 	-56.1174 	33.4369 	5.36195 	0
0.0108558 	-57.7139 	32.3711 	5.48563 	0
0.0114271 	-59.0801 	31.2593 	5.56871 	0
0.0119985 	-60.0185 	29.7276 	5.42381 	0
0.0125698 	-56.3032 	27.2883 	5.37102 	0
0.0131412 	-9.47359 	21.3498 	5.82136 	0
0.0137126 	11.7392 	20.9896 	5.70508 	0
0.0142839 	20.208 	20.984 	5.57997 	0
0.0148553 	24.5618 	21.0607 	5.44527 	0
0.0154266 	27.0491 	21.1901 	5.30517 	0
0.015998 	28.3738 	21.3795 	5.16736 	0
0.0165693 	29.0224 	21.6322 	5.03998 	0
0.0171407 	29.2044 	21.9486 	4.92531 	0
0.0177121 	29.071 	22.3227 	4.82352 	0
0.0182834 	28.7183 	22.7446 	4.73406 	0
0.0188548 	28.1574 	23.213 	4.6577 	0
0.0194261 	27.4054 	23.734 	4.60219 	0
0.0199975 	26.5691 	24.275 	4.55505 	0
0.0205688 	25.5113 	24.8595 	4.52903 	0
0.0211402 	24.4068 	25.4547 	4.51063 	0
0.0217116 	23.118 	26.0752 	4.51075 	0
0.0222829 	21.8292 	26.6957 	4.51088 	0
0.0228543 	20.3497 	27.3368 	4.5344 	0
0.0234256 	18.8762 	27.975 	4.55525 	0
0.023997 	17.3382 	28.6125 	4.58581 	0
0.0245683 	15.7571 	29.245 	4.62132 	0
0.0251397 	14.176 	29.8775 	4.65684 	0
0.0257111 	12.5709 	30.4913 	4.69778 	0
0.0262824 	10.9865 	31.0899 	4.738 	0
0.0268538 	9.40214 	31.6884 	4.77823 	0
0.0274251 	7.812 	32.2713 	4.8184 	0
0.0279965 	6.32151 	32.812 	4.84763 	0
0.0285678 	4.83103 	33.3527 	4.87686 	0
0.0291392 	3.34054 	33.8935 	4.90608 	0
0.0297106 	1.88497 	34.394 	4.92646 	0
0.0302819 	0.548016 	34.8521 	4.92986 	0
0.0308533 	-0.788934 	35.3102 	4.93326 	0
0.0314246 	-2.12588 	35.7682 	4.93665 	0
0.031996 	-3.48222 	36.2121 	4.93952 	0
0.0325673 	-4.6268 	36.5605 	4.90825 	0
0.0331387 	-5.77137 	36.909 	4.87699 	0
0.0337101 	-6.91595 	37.2575 	4.84573 	0
0.0342814 	-8.06053 	37.606 	4.81447 	0
0.0348528 	-9.22554 	37.9386 	4.7822 	0
0.0354241 	-10.1746 	38.1671 	4.71391 	0
0.0359955 	-11.1236 	38.3957 	4.64562 	0
0.0365668 	-12.0726 	38.6242 	4.57732 	0
0.0371382 	-13.0217 	38.8528 	4.50903 	0
0.0377095 	-13.9707 	39.0813 	4.44074 	0
0.0382809 	-14.9106 	39.2693 	4.36679 	0
0.0388523 	-15.724 	39.3949 	4.27608 	0
0.0394236 	-16.5375 	39.5205 	4.18537 	0
0.039995 	-17.3509 	39.6461 	4.09465 	0
0.0405663 	-18.1644 	39.7717 	4.00394 	0
0.0411377 	-18.9778 	39.8973 	3.91323 	0
0.041709 	-19.7913 	40.0229 	3.82252 	0
0.0422804 	-20.5762 	40.1056 	3.73801 	0
0.0428518 	-21.3011 	40.1774 	3.65113 	0
0.0434231 	-22.026 	40.2491 	3.56425 	0
0.0439945 	-22.7509 	40.3208 	3.47737 	0
0.0445658 	-23.4758 	40.3925 	3.39049 	0
0.0451372 	-24.2007 	40.4642 	3.30361 	0
0.0457085 	-24.9256 	40.536 	3.21673 	0
0.0462799 	-25.6671 	40.6065 	3.13797 	0
0.0468513 	-26.2987 	40.6648 	3.06771 	0
0.0474226 	-26.9302 	40.7231 	2.99744 	0
0.047994 	-27.5618 	40.7813 	2.92718 	0
0.0485653 	-28.1934 	40.8396 	2.85692 	0
0.0491367 	-28.8249 	40.8979 	2.78665 	0
0.049708 	-29.4565 	40.9562 	2.71639 	0
0.0502794 	-30.0881 	41.0145 	2.64613 	0
0.0508508 	-30.7196 	41.0728 	2.57586 	0
0.0514221 	-31.3173 	41.1287 	2.51855 	0
0.0519935 	-31.8352 	41.1787 	2.46337 	0
0.0525648 	-32.3531 	41.2288 	2.4082 	0
0.0531362 	-32.871 	41.2789 	2.35303 	0
0.0537075 	-33.3889 	41.329 	2.29786 	0
0.0542789 	-33.9069 	41.3791 	2.24269 	0
0.0548503 	-34.4248 	41.4292 	2.18752 	0
0.0554216 	-34.9427 	41.4793 	2.13235 	0
0.055993 	-35.4606 	41.5294 	2.07718 	0
0.0565643 	-35.9785 	41.5794 	2.02201 	0
0.0571357 	-36.4347 	41.6227 	1.9789 	0
0.057707 	-36.8226 	41.6606 	1.93635 	0
0.0582784 	-37.2104 	41.6985 	1.8938 	0
0.0588497 	-37.5982 	41.7363 	1.85126 	0
0.0594211 	-37.9861 	41.7742 	1.80871 	0
0.0599925 	-38.3739 	41.8121 	1.76616 	0
0.0605638 	-38.7618 	41.85 	1.72361 	0
0.0611352 	-39.1496 	41.8878 	1.68107 	0
0.0617065 	-39.5374 	41.9257 	1.63852 	0
0.0622779 	-39.9253 	41.9636 	1.59597 	0
0.0628492 	-40.3131 	42.0014 	1.55342 	0
0.0634206 	-40.6917 	42.0371 	1.51641 	0
0.063992 	-40.9816 	42.0651 	1.48243 	0
0.0645633 	-41.2715 	42.093 	1.44846 	0
0.0651347 	-41.5615 	42.1209 	1.41448 	0
0.065706 	-41.8514 	42.1488 	1.3805 	0
0.0662774 	-42.1413 	42.1767 	1.34652 	0
0.0668487 	-42.4312 	42.2046 	1.31254 	0
0.0674201 	-42.7212 	42.2325 	1.27856 	0
0.0679915 	-43.0111 	42.2605 	1.24459 	0
0.0685628 	-43.301 	42.2884 	1.21061 	0
0.0691342 	-43.5909 	42.3163 	1.17663 	0
0.0697055 	-43.8998 	42.3452 	1.14446 	0
0.0702769 	-44.1218 	42.3661 	1.11607 	0
0.0708482 	-44.3438 	42.3871 	1.08767 	0
0.0714196 	-44.5659 	42.408 	1.05928 	0
0.071991 	-44.7879 	42.4289 	1.03089 	0
0.0725623 	-45.01 	42.4499 	1.0025 	0
0.0731337 	-45.232 	42.4708 	0.974105 	0
0.073705 	-45.454 	42.4917 	0.945712 	0
0.0742764 	-45.6761 	42.5127 	0.91732 	0
0.0748477 	-45.8981 	42.5336 	0.888927 	0
0.0754191 	-46.127 	42.5547 	0.862262 	0
0.0759905 	-46.2932 	42.5703 	0.838589 	0
0.0765618 	-46.4594 	42.5859 	0.814917 	0
0.0771332 	-46.6256 	42.6015 	0.791244 	0
0.0777045 	-46.7918 	42.6171 	0.767571 	0
0.0782759 	-46.958 	42.6327 	0.743898 	0
0.0788472 	-47.1242 	42.6483 	0.720225 	0
0.0794186 	-47.2904 	42.664 	0.696552 	0
0.0799899 	-47.4566 	42.6796 	0.672879 	0
0.0805613 	-47.6119 	42.6941 	0.651643 	0
0.0811327 	-47.7368 	42.7062 	0.631353 	0
0.081704 	-47.8617 	42.7184 	0.611062 	0
0.0822754 	-47.9867 	42.7305 	0.590771 	0
0.0828467 	-48.1116 	42.7427 	0.57048 	0
0.0834181 	-48.2365 	42.7549 	0.550189 	0
0.0839894 	-48.3614 	42.767 	0.529898 	0
0.0845608 	-48.4941 	42.7797 	0.510061 	0
0.0851322 	-48.5876 	42.7897 	0.492244 	0
0.0857035 	-48.6812 	42.7997 	0.474428 	0
0.0862749 	-48.7748 	42.8097 	0.456611 	0
0.0868462 	-48.8683 	42.8197 	0.438794 	0
0.0874176 	-48.9619 	42.8296 	0.420978 	0
0.0879889 	-49.0555 	42.8396 	0.403161 	0
0.0885603 	-49.1439 	42.8495 	0.386465 	0
0.0891317 	-49.2129 	42.8582 	0.370473 	0
0.089703 	-49.2819 	42.8669 	0.354482 	0
0.0902744 	-49.3508 	42.8756 	0.338491 	0
0.0908457 	-49.4198 	42.8843 	0.322499 	0
0.0914171 	-49.4888 	42.893 	0.306508 	0
0.0919884 	-49.548 	42.9016 	0.291728 	0
0.0925598 	-49.5972 	42.9098 	0.277102 	0
0.0931312 	-49.6465 	42.9179 	0.262476 	0
0.0937025 	-49.6958 	42.9261 	0.24785 	0
0.0942739 	-49.745 	42.9342 	0.233224 	0
0.0948452 	-49.7859 	42.9426 	0.219528 	0
0.0954166 	-49.8191 	42.9508 	0.205942 	0
0.0959879 	-49.8523 	42.9589 	0.192355 	0
0.0965593 	-49.8854 	42.9671 	0.178768 	0
0.0971307 	-49.9162 	42.9757 	0.165614 	0
0.097702 	-49.9359 	42.9844 	0.152819 	0
0.0982734 	-49.9557 	42.9932 	0.140024 	0
0.0988447 	-49.9754 	43.0019 	0.127229 	0
0.0994161 	-49.9908 	43.0115 	0.114892 	0
0.0999874 	-49.9992 	43.0214 	0.102701 	0
0.100559 	-50.0077 	43.0313 	0.0905093 	0
0.10113 	-50.0153 	43.0418 	0.0785261 	0
0.101702 	-50.0141 	43.0536 	0.0667766 	0
0.102273 	-50.013 	43.0654 	0.0550271 	0
0.102844 	-50.0101 	43.0782 	0.043473 	0
0.103416 	-50.0007 	43.0924 	0.0320349 	0
0.103987 	-49.9912 	43.1067 	0.0205969 	0
0.104558 	-49.9767 	43.1232 	0.00944262 	0
0.10513 	-49.9601 	43.1402 	-0.00174296 	0
0.105701 	-49.9402 	43.1592 	-0.0127683 	0
0.106272 	-49.9173 	43.1794 	-0.0238008 	0
0.106844 	-49.8914 	43.1977 	-0.0347718 	0
0.107415 	-49.8637 	43.2085 	-0.0456441 	0
0.107986 	-49.8309 	43.0851 	-0.0545889 	0
0.108558 	-49.7999 	42.6696 	-0.0589526 	0
0.109129 	-49.7725 	41.8797 	-0.0578545 	0
0.109701 	-49.7513 	40.6721 	-0.0517055 	0
0.110272 	-49.7332 	39.2545 	-0.0458397 	0
0.110843 	-49.7175 	37.7398 	-0.0417243 	0
0.111415 	-49.7042 	36.145 	-0.0384227 	0
0.111986 	-49.694 	34.332 	-0.0341009 	0
0.112557 	-49.6938 	31.9798 	-0.026154 	0
0.113129 	-49.7127 	28.1281 	-0.0134468 	0
0.1137 	-49.7339 	1.25453e-10 	-3.09557e-15 	0
