0.0131412 	-220.352 	21.2476 	-0.0240457 	0
0.0137126 	-220.326 	25.4769 	-0.0552673 	0
0.0142839 	-220.239 	28.6126 	-0.0770158 	0
0.0148553 	-220.109 	31.548 	-0.0886063 	0
0.0154266 	-219.939 	33.8921 	-0.0971797 	0
0.015998 	-219.735 	35.2187 	-0.115908 	0
0.0165693 	-219.511 	36.0722 	-0.137038 	0
0.0171407 	-219.256 	36.775 	-0.157814 	0
0.0177121 	-218.978 	37.3954 	-0.177826 	0
0.0182834 	-218.683 	37.9573 	-0.197011 	0
0.0188548 	-218.355 	38.4603 	-0.215806 	0
0.0194261 	-217.989 	38.9178 	-0.234172 	0
0.0199975 	-217.644 	39.3568 	-0.251423 	0
0.0205688 	-217.226 	39.7434 	-0.268555 	0
0.0211402 	-216.842 	40.1251 	-0.284723 	0
0.0217116 	-216.384 	40.4649 	-0.30066 	0
0.0222829 	-215.977 	40.8063 	-0.315762 	0
0.0228543 	-215.483 	41.1078 	-0.330422 	0
0.0234256 	-215.027 	41.4079 	-0.344478 	0
0.023997 	-214.547 	41.6928 	-0.358046 	0
0.0245683 	-214.017 	41.956 	-0.371135 	0
0.0251397 	-213.54 	42.2206 	-0.383704 	0
0.0257111 	-213.018 	42.4681 	-0.39569 	0
0.0262824 	-212.454 	42.6998 	-0.407147 	0
0.0268538 	-211.945 	42.9331 	-0.418241 	0
0.0274251 	-211.42 	43.1601 	-0.42906 	0
0.0279965 	-210.831 	43.3631 	-0.438865 	0
0.0285678 	-210.267 	43.5668 	-0.448585 	0
0.0291392 	-209.732 	43.7714 	-0.458197 	0
0.0297106 	-209.168 	43.9538 	-0.466975 	0
0.0302819 	-208.561 	44.1043 	-0.474553 	0
0.0308533 	-207.973 	44.2556 	-0.482132 	0
0.0314246 	-207.417 	44.4079 	-0.489711 	0
0.031996 	-206.858 	44.5543 	-0.497145 	0
0.0325673 	-206.251 	44.5995 	-0.502039 	0
0.0331387 	-205.643 	44.6448 	-0.506933 	0
0.0337101 	-205.069 	44.6911 	-0.511974 	0
0.0342814 	-204.507 	44.7379 	-0.517068 	0
0.0348528 	-203.944 	44.7809 	-0.522023 	0
0.0354241 	-203.359 	44.7657 	-0.524831 	0
0.0359955 	-202.774 	44.7505 	-0.527638 	0
0.0365668 	-202.205 	44.7357 	-0.530575 	0
0.0371382 	-201.659 	44.7215 	-0.533704 	0
0.0377095 	-201.114 	44.7073 	-0.536833 	0
0.0382809 	-200.565 	44.6936 	-0.539364 	0
0.0388523 	-200.012 	44.6809 	-0.54071 	0
0.0394236 	-199.459 	44.6682 	-0.542056 	0
0.039995 	-198.915 	44.6557 	-0.543507 	0
0.0405663 	-198.395 	44.6436 	-0.545221 	0
0.0411377 	-197.874 	44.6316 	-0.546934 	0
0.041709 	-197.354 	44.6196 	-0.548648 	0
0.0422804 	-196.838 	44.6081 	-0.549091 	0
0.0428518 	-196.324 	44.5967 	-0.549156 	0
0.0434231 	-195.81 	44.5854 	-0.549222 	0
0.0439945 	-195.303 	44.5742 	-0.549393 	0
0.0445658 	-194.815 	44.5634 	-0.549843 	0
0.0451372 	-194.328 	44.5526 	-0.550293 	0
0.0457085 	-193.84 	44.5418 	-0.550743 	0
0.0462799 	-193.358 	44.5312 	-0.55081 	0
0.0468513 	-192.89 	44.5213 	-0.549705 	0
0.0474226 	-192.421 	44.5114 	-0.548599 	0
0.047994 	-191.953 	44.5014 	-0.547494 	0
0.0485653 	-191.49 	44.4916 	-0.546479 	0
0.0491367 	-191.043 	44.4821 	-0.545754 	0
0.049708 	-190.596 	44.4726 	-0.54503 	0
0.0502794 	-190.149 	44.4631 	-0.544305 	0
0.0508508 	-189.702 	44.4536 	-0.543581 	0
0.0514221 	-189.274 	44.4447 	-0.542005 	0
0.0519935 	-188.857 	44.4363 	-0.539905 	0
0.0525648 	-188.44 	44.4278 	-0.537804 	0
0.0531362 	-188.023 	44.4194 	-0.535703 	0
0.0537075 	-187.607 	44.4109 	-0.533611 	0
0.0542789 	-187.207 	44.4028 	-0.531872 	0
0.0548503 	-186.806 	44.3947 	-0.530134 	0
0.0554216 	-186.406 	44.3865 	-0.528395 	0
0.055993 	-186.005 	44.3784 	-0.526656 	0
0.0565643 	-185.605 	44.3702 	-0.524918 	0
0.0571357 	-185.239 	44.3631 	-0.522366 	0
0.057707 	-184.887 	44.3564 	-0.519508 	0
0.0582784 	-184.535 	44.3497 	-0.51665 	0
0.0588497 	-184.182 	44.3429 	-0.513792 	0
0.0594211 	-183.83 	44.3362 	-0.510933 	0
0.0599925 	-183.483 	44.3295 	-0.508225 	0
0.0605638 	-183.143 	44.323 	-0.505695 	0
0.0611352 	-182.802 	44.3165 	-0.503165 	0
0.0617065 	-182.462 	44.31 	-0.500634 	0
0.0622779 	-182.122 	44.3035 	-0.498104 	0
0.0628492 	-181.781 	44.2969 	-0.495574 	0
0.0634206 	-181.457 	44.2909 	-0.492685 	0
0.063992 	-181.157 	44.2856 	-0.489226 	0
0.0645633 	-180.858 	44.2804 	-0.485767 	0
0.0651347 	-180.558 	44.2751 	-0.482308 	0
0.065706 	-180.259 	44.2698 	-0.478849 	0
0.0662774 	-179.961 	44.2646 	-0.475425 	0
0.0668487 	-179.67 	44.2594 	-0.472266 	0
0.0674201 	-179.38 	44.2543 	-0.469106 	0
0.0679915 	-179.089 	44.2492 	-0.465947 	0
0.0685628 	-178.798 	44.2441 	-0.462788 	0
0.0691342 	-178.508 	44.239 	-0.459628 	0
0.0697055 	-178.219 	44.2339 	-0.456432 	0
0.0702769 	-177.96 	44.2298 	-0.45247 	0
0.0708482 	-177.7 	44.2258 	-0.448509 	0
0.0714196 	-177.441 	44.2217 	-0.444547 	0
0.071991 	-177.181 	44.2177 	-0.440586 	0
0.0725623 	-176.925 	44.2137 	-0.436751 	0
0.0731337 	-176.673 	44.2098 	-0.433071 	0
0.073705 	-176.42 	44.2058 	-0.42939 	0
0.0742764 	-176.168 	44.2019 	-0.42571 	0
0.0748477 	-175.915 	44.198 	-0.422029 	0
0.0754191 	-175.668 	44.1942 	-0.418265 	0
0.0759905 	-175.448 	44.1914 	-0.414042 	0
0.0765618 	-175.228 	44.1885 	-0.409819 	0
0.0771332 	-175.008 	44.1857 	-0.405596 	0
0.0777045 	-174.789 	44.1829 	-0.401411 	0
0.0782759 	-174.574 	44.1801 	-0.397448 	0
0.0788472 	-174.359 	44.1774 	-0.393484 	0
0.0794186 	-174.145 	44.1746 	-0.389521 	0
0.0799899 	-173.93 	44.1719 	-0.385557 	0
0.0805613 	-173.73 	44.1697 	-0.381367 	0
0.0811327 	-173.542 	44.168 	-0.376975 	0
0.081704 	-173.355 	44.1663 	-0.372582 	0
0.0822754 	-173.167 	44.1646 	-0.368197 	0
0.0828467 	-172.984 	44.1629 	-0.364047 	0
0.0834181 	-172.801 	44.1613 	-0.359897 	0
0.0839894 	-172.617 	44.1597 	-0.355747 	0
0.0845608 	-172.434 	44.158 	-0.351596 	0
0.0851322 	-172.274 	44.1575 	-0.347093 	0
0.0857035 	-172.113 	44.1569 	-0.34259 	0
0.0862749 	-171.953 	44.1563 	-0.338087 	0
0.0868462 	-171.796 	44.1558 	-0.333802 	0
0.0874176 	-171.639 	44.1552 	-0.329529 	0
0.0879889 	-171.482 	44.1547 	-0.325255 	0
0.0885603 	-171.333 	44.1547 	-0.320849 	0
0.0891317 	-171.196 	44.1552 	-0.316273 	0
0.089703 	-171.058 	44.1558 	-0.311696 	0
0.0902744 	-170.923 	44.1565 	-0.307291 	0
0.0908457 	-170.788 	44.1571 	-0.302934 	0
0.0914171 	-170.653 	44.1577 	-0.298577 	0
0.0919884 	-170.531 	44.1592 	-0.294029 	0
0.0925598 	-170.412 	44.1611 	-0.289405 	0
0.0931312 	-170.295 	44.163 	-0.284864 	0
0.0937025 	-170.179 	44.1649 	-0.280451 	0
0.0942739 	-170.064 	44.1669 	-0.276038 	0
0.0948452 	-169.958 	44.1698 	-0.271451 	0
0.0954166 	-169.857 	44.1732 	-0.266797 	0
0.0959879 	-169.757 	44.1765 	-0.262285 	0
0.0965593 	-169.657 	44.1799 	-0.257835 	0
0.0971307 	-169.562 	44.1839 	-0.253304 	0
0.097702 	-169.475 	44.1889 	-0.248632 	0
0.0982734 	-169.389 	44.194 	-0.244078 	0
0.0988447 	-169.303 	44.1991 	-0.239605 	0
0.0994161 	-169.224 	44.2052 	-0.235015 	0
0.0999874 	-169.149 	44.2123 	-0.230338 	0
0.100559 	-169.075 	44.2193 	-0.225851 	0
0.10113 	-169.004 	44.2269 	-0.221316 	0
0.101702 	-168.94 	44.2362 	-0.216631 	0
0.102273 	-168.876 	44.2455 	-0.212121 	0
0.102844 	-168.816 	44.2557 	-0.20756 	0
0.103416 	-168.761 	44.2676 	-0.202913 	0
0.103987 	-168.706 	44.2794 	-0.19842 	0
0.104558 	-168.657 	44.2937 	-0.193771 	0
0.10513 	-168.61 	44.3083 	-0.189247 	0
0.105701 	-168.567 	44.325 	-0.184641 	0
0.106272 	-168.526 	44.3427 	-0.18011 	0
0.106844 	-168.489 	44.3627 	-0.175496 	0
0.107415 	-168.454 	44.3838 	-0.170999 	0
0.107986 	-168.423 	44.408 	-0.166414 	0
0.108558 	-168.395 	44.4342 	-0.161847 	0
0.109129 	-168.369 	44.4627 	-0.157325 	0
0.109701 	-168.346 	44.4942 	-0.152793 	0
0.110272 	-168.327 	44.5271 	-0.148334 	0
0.110843 	-168.309 	44.4813 	-0.143204 	0
0.111415 	-168.292 	43.7301 	-0.128436 	0
0.111986 	-168.289 	40.9333 	-0.0864731 	0
0.112557 	-168.298 	37.0551 	-0.0473253 	0
0.113129 	-168.32 	31.9327 	-0.0186487 	0
0.1137 	-168.341 	1.42971e-10 	-4.84518e-15 	0
