/*--------------------------------*- C++ -*----------------------------------*\
| =========                 |                                                 |
| \\      /  F ield         | OpenFOAM: The Open Source CFD Toolbox           |
|  \\    /   O peration     | Version:  2412                                  |
|   \\  /    A nd           | Website:  www.openfoam.com                      |
|    \\/     M anipulation  |                                                 |
\*---------------------------------------------------------------------------*/
FoamFile
{
    version     2.0;
    format      ascii;
    arch        "LSB;label=32;scalar=64";
    class       volVectorField;
    location    "1500";
    object      C;
}
// * * * * * * * * * * * * * * * * * * * * * * * * * * * * * * * * * * * * * //

dimensions      [0 1 0 0 0 0 0];

internalField   nonuniform List<vector> 
18000
(
(-0.148213 0.0127157 0.005)
(-0.1431 0.0127157 0.005)
(-0.138112 0.0127157 0.005)
(-0.133245 0.0127157 0.005)
(-0.128496 0.0127157 0.005)
(-0.123863 0.0127157 0.005)
(-0.119342 0.0127157 0.005)
(-0.11493 0.0127157 0.005)
(-0.110626 0.0127157 0.005)
(-0.106426 0.0127157 0.005)
(-0.102328 0.0127157 0.005)
(-0.0983298 0.0127157 0.005)
(-0.0944284 0.0127157 0.005)
(-0.0906217 0.0127157 0.005)
(-0.0869073 0.0127157 0.005)
(-0.0832832 0.0127157 0.005)
(-0.079747 0.0127157 0.005)
(-0.0762966 0.0127157 0.005)
(-0.07293 0.0127157 0.005)
(-0.0696451 0.0127157 0.005)
(-0.0664399 0.0127157 0.005)
(-0.0633125 0.0127157 0.005)
(-0.060261 0.0127157 0.005)
(-0.0572836 0.0127157 0.005)
(-0.0543784 0.0127157 0.005)
(-0.0515438 0.0127157 0.005)
(-0.0487779 0.0127157 0.005)
(-0.0460792 0.0127157 0.005)
(-0.043446 0.0127157 0.005)
(-0.0408767 0.0127157 0.005)
(-0.0383698 0.0127157 0.005)
(-0.0359237 0.0127157 0.005)
(-0.0335369 0.0127157 0.005)
(-0.0312082 0.0127157 0.005)
(-0.0289359 0.0127157 0.005)
(-0.0267188 0.0127157 0.005)
(-0.0245555 0.0127157 0.005)
(-0.0224447 0.0127157 0.005)
(-0.0203851 0.0127157 0.005)
(-0.0183755 0.0127157 0.005)
(-0.0164147 0.0127157 0.005)
(-0.0145015 0.0127157 0.005)
(-0.0126347 0.0127157 0.005)
(-0.0108133 0.0127157 0.005)
(-0.00903603 0.0127157 0.005)
(-0.00730191 0.0127157 0.005)
(-0.00560988 0.0127157 0.005)
(-0.00395892 0.0127157 0.005)
(-0.00234803 0.0127157 0.005)
(-0.000776241 0.0127157 0.005)
(-0.148213 0.0127493 0.005)
(-0.1431 0.0127493 0.005)
(-0.138112 0.0127493 0.005)
(-0.133245 0.0127493 0.005)
(-0.128496 0.0127493 0.005)
(-0.123863 0.0127493 0.005)
(-0.119342 0.0127493 0.005)
(-0.11493 0.0127493 0.005)
(-0.110626 0.0127493 0.005)
(-0.106426 0.0127493 0.005)
(-0.102328 0.0127493 0.005)
(-0.0983298 0.0127493 0.005)
(-0.0944284 0.0127493 0.005)
(-0.0906217 0.0127493 0.005)
(-0.0869073 0.0127493 0.005)
(-0.0832832 0.0127493 0.005)
(-0.079747 0.0127493 0.005)
(-0.0762966 0.0127493 0.005)
(-0.07293 0.0127493 0.005)
(-0.0696451 0.0127493 0.005)
(-0.0664399 0.0127493 0.005)
(-0.0633125 0.0127493 0.005)
(-0.060261 0.0127493 0.005)
(-0.0572836 0.0127493 0.005)
(-0.0543784 0.0127493 0.005)
(-0.0515438 0.0127493 0.005)
(-0.0487779 0.0127493 0.005)
(-0.0460792 0.0127493 0.005)
(-0.043446 0.0127493 0.005)
(-0.0408767 0.0127493 0.005)
(-0.0383698 0.0127493 0.005)
(-0.0359237 0.0127493 0.005)
(-0.0335369 0.0127493 0.005)
(-0.0312082 0.0127493 0.005)
(-0.0289359 0.0127493 0.005)
(-0.0267188 0.0127493 0.005)
(-0.0245555 0.0127493 0.005)
(-0.0224447 0.0127493 0.005)
(-0.0203851 0.0127493 0.005)
(-0.0183755 0.0127493 0.005)
(-0.0164147 0.0127493 0.005)
(-0.0145015 0.0127493 0.005)
(-0.0126347 0.0127493 0.005)
(-0.0108133 0.0127493 0.005)
(-0.00903603 0.0127493 0.005)
(-0.00730191 0.0127493 0.005)
(-0.00560988 0.0127493 0.005)
(-0.00395892 0.0127493 0.005)
(-0.00234803 0.0127493 0.005)
(-0.000776241 0.0127493 0.005)
(-0.148213 0.0127879 0.005)
(-0.1431 0.0127879 0.005)
(-0.138112 0.0127879 0.005)
(-0.133245 0.0127879 0.005)
(-0.128496 0.0127879 0.005)
(-0.123863 0.0127879 0.005)
(-0.119342 0.0127879 0.005)
(-0.11493 0.0127879 0.005)
(-0.110626 0.0127879 0.005)
(-0.106426 0.0127879 0.005)
(-0.102328 0.0127879 0.005)
(-0.0983298 0.0127879 0.005)
(-0.0944284 0.0127879 0.005)
(-0.0906217 0.0127879 0.005)
(-0.0869073 0.0127879 0.005)
(-0.0832832 0.0127879 0.005)
(-0.079747 0.0127879 0.005)
(-0.0762966 0.0127879 0.005)
(-0.07293 0.0127879 0.005)
(-0.0696451 0.0127879 0.005)
(-0.0664399 0.0127879 0.005)
(-0.0633125 0.0127879 0.005)
(-0.060261 0.0127879 0.005)
(-0.0572836 0.0127879 0.005)
(-0.0543784 0.0127879 0.005)
(-0.0515438 0.0127879 0.005)
(-0.0487779 0.0127879 0.005)
(-0.0460792 0.0127879 0.005)
(-0.043446 0.0127879 0.005)
(-0.0408767 0.0127879 0.005)
(-0.0383698 0.0127879 0.005)
(-0.0359237 0.0127879 0.005)
(-0.0335369 0.0127879 0.005)
(-0.0312082 0.0127879 0.005)
(-0.0289359 0.0127879 0.005)
(-0.0267188 0.0127879 0.005)
(-0.0245555 0.0127879 0.005)
(-0.0224447 0.0127879 0.005)
(-0.0203851 0.0127879 0.005)
(-0.0183755 0.0127879 0.005)
(-0.0164147 0.0127879 0.005)
(-0.0145015 0.0127879 0.005)
(-0.0126347 0.0127879 0.005)
(-0.0108133 0.0127879 0.005)
(-0.00903603 0.0127879 0.005)
(-0.00730191 0.0127879 0.005)
(-0.00560988 0.0127879 0.005)
(-0.00395892 0.0127879 0.005)
(-0.00234803 0.0127879 0.005)
(-0.000776241 0.0127879 0.005)
(-0.148213 0.0128321 0.005)
(-0.1431 0.0128321 0.005)
(-0.138112 0.0128321 0.005)
(-0.133245 0.0128321 0.005)
(-0.128496 0.0128321 0.005)
(-0.123863 0.0128321 0.005)
(-0.119342 0.0128321 0.005)
(-0.11493 0.0128321 0.005)
(-0.110626 0.0128321 0.005)
(-0.106426 0.0128321 0.005)
(-0.102328 0.0128321 0.005)
(-0.0983298 0.0128321 0.005)
(-0.0944284 0.0128321 0.005)
(-0.0906217 0.0128321 0.005)
(-0.0869073 0.0128321 0.005)
(-0.0832832 0.0128321 0.005)
(-0.079747 0.0128321 0.005)
(-0.0762966 0.0128321 0.005)
(-0.07293 0.0128321 0.005)
(-0.0696451 0.0128321 0.005)
(-0.0664399 0.0128321 0.005)
(-0.0633125 0.0128321 0.005)
(-0.060261 0.0128321 0.005)
(-0.0572836 0.0128321 0.005)
(-0.0543784 0.0128321 0.005)
(-0.0515438 0.0128321 0.005)
(-0.0487779 0.0128321 0.005)
(-0.0460792 0.0128321 0.005)
(-0.043446 0.0128321 0.005)
(-0.0408767 0.0128321 0.005)
(-0.0383698 0.0128321 0.005)
(-0.0359237 0.0128321 0.005)
(-0.0335369 0.0128321 0.005)
(-0.0312082 0.0128321 0.005)
(-0.0289359 0.0128321 0.005)
(-0.0267188 0.0128321 0.005)
(-0.0245555 0.0128321 0.005)
(-0.0224447 0.0128321 0.005)
(-0.0203851 0.0128321 0.005)
(-0.0183755 0.0128321 0.005)
(-0.0164147 0.0128321 0.005)
(-0.0145015 0.0128321 0.005)
(-0.0126347 0.0128321 0.005)
(-0.0108133 0.0128321 0.005)
(-0.00903603 0.0128321 0.005)
(-0.00730191 0.0128321 0.005)
(-0.00560988 0.0128321 0.005)
(-0.00395892 0.0128321 0.005)
(-0.00234803 0.0128321 0.005)
(-0.000776241 0.0128321 0.005)
(-0.148213 0.0128828 0.005)
(-0.1431 0.0128828 0.005)
(-0.138112 0.0128828 0.005)
(-0.133245 0.0128828 0.005)
(-0.128496 0.0128828 0.005)
(-0.123863 0.0128828 0.005)
(-0.119342 0.0128828 0.005)
(-0.11493 0.0128828 0.005)
(-0.110626 0.0128828 0.005)
(-0.106426 0.0128828 0.005)
(-0.102328 0.0128828 0.005)
(-0.0983298 0.0128828 0.005)
(-0.0944284 0.0128828 0.005)
(-0.0906217 0.0128828 0.005)
(-0.0869073 0.0128828 0.005)
(-0.0832832 0.0128828 0.005)
(-0.079747 0.0128828 0.005)
(-0.0762966 0.0128828 0.005)
(-0.07293 0.0128828 0.005)
(-0.0696451 0.0128828 0.005)
(-0.0664399 0.0128828 0.005)
(-0.0633125 0.0128828 0.005)
(-0.060261 0.0128828 0.005)
(-0.0572836 0.0128828 0.005)
(-0.0543784 0.0128828 0.005)
(-0.0515438 0.0128828 0.005)
(-0.0487779 0.0128828 0.005)
(-0.0460792 0.0128828 0.005)
(-0.043446 0.0128828 0.005)
(-0.0408767 0.0128828 0.005)
(-0.0383698 0.0128828 0.005)
(-0.0359237 0.0128828 0.005)
(-0.0335369 0.0128828 0.005)
(-0.0312082 0.0128828 0.005)
(-0.0289359 0.0128828 0.005)
(-0.0267188 0.0128828 0.005)
(-0.0245555 0.0128828 0.005)
(-0.0224447 0.0128828 0.005)
(-0.0203851 0.0128828 0.005)
(-0.0183755 0.0128828 0.005)
(-0.0164147 0.0128828 0.005)
(-0.0145015 0.0128828 0.005)
(-0.0126347 0.0128828 0.005)
(-0.0108133 0.0128828 0.005)
(-0.00903603 0.0128828 0.005)
(-0.00730191 0.0128828 0.005)
(-0.00560988 0.0128828 0.005)
(-0.00395892 0.0128828 0.005)
(-0.00234803 0.0128828 0.005)
(-0.000776241 0.0128828 0.005)
(-0.148213 0.012941 0.005)
(-0.1431 0.012941 0.005)
(-0.138112 0.012941 0.005)
(-0.133245 0.012941 0.005)
(-0.128496 0.012941 0.005)
(-0.123863 0.012941 0.005)
(-0.119342 0.012941 0.005)
(-0.11493 0.012941 0.005)
(-0.110626 0.012941 0.005)
(-0.106426 0.012941 0.005)
(-0.102328 0.012941 0.005)
(-0.0983298 0.012941 0.005)
(-0.0944284 0.012941 0.005)
(-0.0906217 0.012941 0.005)
(-0.0869073 0.012941 0.005)
(-0.0832832 0.012941 0.005)
(-0.079747 0.012941 0.005)
(-0.0762966 0.012941 0.005)
(-0.07293 0.012941 0.005)
(-0.0696451 0.012941 0.005)
(-0.0664399 0.012941 0.005)
(-0.0633125 0.012941 0.005)
(-0.060261 0.012941 0.005)
(-0.0572836 0.012941 0.005)
(-0.0543784 0.012941 0.005)
(-0.0515438 0.012941 0.005)
(-0.0487779 0.012941 0.005)
(-0.0460792 0.012941 0.005)
(-0.043446 0.012941 0.005)
(-0.0408767 0.012941 0.005)
(-0.0383698 0.012941 0.005)
(-0.0359237 0.012941 0.005)
(-0.0335369 0.012941 0.005)
(-0.0312082 0.012941 0.005)
(-0.0289359 0.012941 0.005)
(-0.0267188 0.012941 0.005)
(-0.0245555 0.012941 0.005)
(-0.0224447 0.012941 0.005)
(-0.0203851 0.012941 0.005)
(-0.0183755 0.012941 0.005)
(-0.0164147 0.012941 0.005)
(-0.0145015 0.012941 0.005)
(-0.0126347 0.012941 0.005)
(-0.0108133 0.012941 0.005)
(-0.00903603 0.012941 0.005)
(-0.00730191 0.012941 0.005)
(-0.00560988 0.012941 0.005)
(-0.00395892 0.012941 0.005)
(-0.00234803 0.012941 0.005)
(-0.000776241 0.012941 0.005)
(-0.148213 0.0130076 0.005)
(-0.1431 0.0130076 0.005)
(-0.138112 0.0130076 0.005)
(-0.133245 0.0130076 0.005)
(-0.128496 0.0130076 0.005)
(-0.123863 0.0130076 0.005)
(-0.119342 0.0130076 0.005)
(-0.11493 0.0130076 0.005)
(-0.110626 0.0130076 0.005)
(-0.106426 0.0130076 0.005)
(-0.102328 0.0130076 0.005)
(-0.0983298 0.0130076 0.005)
(-0.0944284 0.0130076 0.005)
(-0.0906217 0.0130076 0.005)
(-0.0869073 0.0130076 0.005)
(-0.0832832 0.0130076 0.005)
(-0.079747 0.0130076 0.005)
(-0.0762966 0.0130076 0.005)
(-0.07293 0.0130076 0.005)
(-0.0696451 0.0130076 0.005)
(-0.0664399 0.0130076 0.005)
(-0.0633125 0.0130076 0.005)
(-0.060261 0.0130076 0.005)
(-0.0572836 0.0130076 0.005)
(-0.0543784 0.0130076 0.005)
(-0.0515438 0.0130076 0.005)
(-0.0487779 0.0130076 0.005)
(-0.0460792 0.0130076 0.005)
(-0.043446 0.0130076 0.005)
(-0.0408767 0.0130076 0.005)
(-0.0383698 0.0130076 0.005)
(-0.0359237 0.0130076 0.005)
(-0.0335369 0.0130076 0.005)
(-0.0312082 0.0130076 0.005)
(-0.0289359 0.0130076 0.005)
(-0.0267188 0.0130076 0.005)
(-0.0245555 0.0130076 0.005)
(-0.0224447 0.0130076 0.005)
(-0.0203851 0.0130076 0.005)
(-0.0183755 0.0130076 0.005)
(-0.0164147 0.0130076 0.005)
(-0.0145015 0.0130076 0.005)
(-0.0126347 0.0130076 0.005)
(-0.0108133 0.0130076 0.005)
(-0.00903603 0.0130076 0.005)
(-0.00730191 0.0130076 0.005)
(-0.00560988 0.0130076 0.005)
(-0.00395892 0.0130076 0.005)
(-0.00234803 0.0130076 0.005)
(-0.000776241 0.0130076 0.005)
(-0.148213 0.013084 0.005)
(-0.1431 0.013084 0.005)
(-0.138112 0.013084 0.005)
(-0.133245 0.013084 0.005)
(-0.128496 0.013084 0.005)
(-0.123863 0.013084 0.005)
(-0.119342 0.013084 0.005)
(-0.11493 0.013084 0.005)
(-0.110626 0.013084 0.005)
(-0.106426 0.013084 0.005)
(-0.102328 0.013084 0.005)
(-0.0983298 0.013084 0.005)
(-0.0944284 0.013084 0.005)
(-0.0906217 0.013084 0.005)
(-0.0869073 0.013084 0.005)
(-0.0832832 0.013084 0.005)
(-0.079747 0.013084 0.005)
(-0.0762966 0.013084 0.005)
(-0.07293 0.013084 0.005)
(-0.0696451 0.013084 0.005)
(-0.0664399 0.013084 0.005)
(-0.0633125 0.013084 0.005)
(-0.060261 0.013084 0.005)
(-0.0572836 0.013084 0.005)
(-0.0543784 0.013084 0.005)
(-0.0515438 0.013084 0.005)
(-0.0487779 0.013084 0.005)
(-0.0460792 0.013084 0.005)
(-0.043446 0.013084 0.005)
(-0.0408767 0.013084 0.005)
(-0.0383698 0.013084 0.005)
(-0.0359237 0.013084 0.005)
(-0.0335369 0.013084 0.005)
(-0.0312082 0.013084 0.005)
(-0.0289359 0.013084 0.005)
(-0.0267188 0.013084 0.005)
(-0.0245555 0.013084 0.005)
(-0.0224447 0.013084 0.005)
(-0.0203851 0.013084 0.005)
(-0.0183755 0.013084 0.005)
(-0.0164147 0.013084 0.005)
(-0.0145015 0.013084 0.005)
(-0.0126347 0.013084 0.005)
(-0.0108133 0.013084 0.005)
(-0.00903603 0.013084 0.005)
(-0.00730191 0.013084 0.005)
(-0.00560988 0.013084 0.005)
(-0.00395892 0.013084 0.005)
(-0.00234803 0.013084 0.005)
(-0.000776241 0.013084 0.005)
(-0.148213 0.0131716 0.005)
(-0.1431 0.0131716 0.005)
(-0.138112 0.0131716 0.005)
(-0.133245 0.0131716 0.005)
(-0.128496 0.0131716 0.005)
(-0.123863 0.0131716 0.005)
(-0.119342 0.0131716 0.005)
(-0.11493 0.0131716 0.005)
(-0.110626 0.0131716 0.005)
(-0.106426 0.0131716 0.005)
(-0.102328 0.0131716 0.005)
(-0.0983298 0.0131716 0.005)
(-0.0944284 0.0131716 0.005)
(-0.0906217 0.0131716 0.005)
(-0.0869073 0.0131716 0.005)
(-0.0832832 0.0131716 0.005)
(-0.079747 0.0131716 0.005)
(-0.0762966 0.0131716 0.005)
(-0.07293 0.0131716 0.005)
(-0.0696451 0.0131716 0.005)
(-0.0664399 0.0131716 0.005)
(-0.0633125 0.0131716 0.005)
(-0.060261 0.0131716 0.005)
(-0.0572836 0.0131716 0.005)
(-0.0543784 0.0131716 0.005)
(-0.0515438 0.0131716 0.005)
(-0.0487779 0.0131716 0.005)
(-0.0460792 0.0131716 0.005)
(-0.043446 0.0131716 0.005)
(-0.0408767 0.0131716 0.005)
(-0.0383698 0.0131716 0.005)
(-0.0359237 0.0131716 0.005)
(-0.0335369 0.0131716 0.005)
(-0.0312082 0.0131716 0.005)
(-0.0289359 0.0131716 0.005)
(-0.0267188 0.0131716 0.005)
(-0.0245555 0.0131716 0.005)
(-0.0224447 0.0131716 0.005)
(-0.0203851 0.0131716 0.005)
(-0.0183755 0.0131716 0.005)
(-0.0164147 0.0131716 0.005)
(-0.0145015 0.0131716 0.005)
(-0.0126347 0.0131716 0.005)
(-0.0108133 0.0131716 0.005)
(-0.00903603 0.0131716 0.005)
(-0.00730191 0.0131716 0.005)
(-0.00560988 0.0131716 0.005)
(-0.00395892 0.0131716 0.005)
(-0.00234803 0.0131716 0.005)
(-0.000776241 0.0131716 0.005)
(-0.148213 0.013272 0.005)
(-0.1431 0.013272 0.005)
(-0.138112 0.013272 0.005)
(-0.133245 0.013272 0.005)
(-0.128496 0.013272 0.005)
(-0.123863 0.013272 0.005)
(-0.119342 0.013272 0.005)
(-0.11493 0.013272 0.005)
(-0.110626 0.013272 0.005)
(-0.106426 0.013272 0.005)
(-0.102328 0.013272 0.005)
(-0.0983298 0.013272 0.005)
(-0.0944284 0.013272 0.005)
(-0.0906217 0.013272 0.005)
(-0.0869073 0.013272 0.005)
(-0.0832832 0.013272 0.005)
(-0.079747 0.013272 0.005)
(-0.0762966 0.013272 0.005)
(-0.07293 0.013272 0.005)
(-0.0696451 0.013272 0.005)
(-0.0664399 0.013272 0.005)
(-0.0633125 0.013272 0.005)
(-0.060261 0.013272 0.005)
(-0.0572836 0.013272 0.005)
(-0.0543784 0.013272 0.005)
(-0.0515438 0.013272 0.005)
(-0.0487779 0.013272 0.005)
(-0.0460792 0.013272 0.005)
(-0.043446 0.013272 0.005)
(-0.0408767 0.013272 0.005)
(-0.0383698 0.013272 0.005)
(-0.0359237 0.013272 0.005)
(-0.0335369 0.013272 0.005)
(-0.0312082 0.013272 0.005)
(-0.0289359 0.013272 0.005)
(-0.0267188 0.013272 0.005)
(-0.0245555 0.013272 0.005)
(-0.0224447 0.013272 0.005)
(-0.0203851 0.013272 0.005)
(-0.0183755 0.013272 0.005)
(-0.0164147 0.013272 0.005)
(-0.0145015 0.013272 0.005)
(-0.0126347 0.013272 0.005)
(-0.0108133 0.013272 0.005)
(-0.00903603 0.013272 0.005)
(-0.00730191 0.013272 0.005)
(-0.00560988 0.013272 0.005)
(-0.00395892 0.013272 0.005)
(-0.00234803 0.013272 0.005)
(-0.000776241 0.013272 0.005)
(-0.148213 0.0133872 0.005)
(-0.1431 0.0133872 0.005)
(-0.138112 0.0133872 0.005)
(-0.133245 0.0133872 0.005)
(-0.128496 0.0133872 0.005)
(-0.123863 0.0133872 0.005)
(-0.119342 0.0133872 0.005)
(-0.11493 0.0133872 0.005)
(-0.110626 0.0133872 0.005)
(-0.106426 0.0133872 0.005)
(-0.102328 0.0133872 0.005)
(-0.0983298 0.0133872 0.005)
(-0.0944284 0.0133872 0.005)
(-0.0906217 0.0133872 0.005)
(-0.0869073 0.0133872 0.005)
(-0.0832832 0.0133872 0.005)
(-0.079747 0.0133872 0.005)
(-0.0762966 0.0133872 0.005)
(-0.07293 0.0133872 0.005)
(-0.0696451 0.0133872 0.005)
(-0.0664399 0.0133872 0.005)
(-0.0633125 0.0133872 0.005)
(-0.060261 0.0133872 0.005)
(-0.0572836 0.0133872 0.005)
(-0.0543784 0.0133872 0.005)
(-0.0515438 0.0133872 0.005)
(-0.0487779 0.0133872 0.005)
(-0.0460792 0.0133872 0.005)
(-0.043446 0.0133872 0.005)
(-0.0408767 0.0133872 0.005)
(-0.0383698 0.0133872 0.005)
(-0.0359237 0.0133872 0.005)
(-0.0335369 0.0133872 0.005)
(-0.0312082 0.0133872 0.005)
(-0.0289359 0.0133872 0.005)
(-0.0267188 0.0133872 0.005)
(-0.0245555 0.0133872 0.005)
(-0.0224447 0.0133872 0.005)
(-0.0203851 0.0133872 0.005)
(-0.0183755 0.0133872 0.005)
(-0.0164147 0.0133872 0.005)
(-0.0145015 0.0133872 0.005)
(-0.0126347 0.0133872 0.005)
(-0.0108133 0.0133872 0.005)
(-0.00903603 0.0133872 0.005)
(-0.00730191 0.0133872 0.005)
(-0.00560988 0.0133872 0.005)
(-0.00395892 0.0133872 0.005)
(-0.00234803 0.0133872 0.005)
(-0.000776241 0.0133872 0.005)
(-0.148213 0.0135192 0.005)
(-0.1431 0.0135192 0.005)
(-0.138112 0.0135192 0.005)
(-0.133245 0.0135192 0.005)
(-0.128496 0.0135192 0.005)
(-0.123863 0.0135192 0.005)
(-0.119342 0.0135192 0.005)
(-0.11493 0.0135192 0.005)
(-0.110626 0.0135192 0.005)
(-0.106426 0.0135192 0.005)
(-0.102328 0.0135192 0.005)
(-0.0983298 0.0135192 0.005)
(-0.0944284 0.0135192 0.005)
(-0.0906217 0.0135192 0.005)
(-0.0869073 0.0135192 0.005)
(-0.0832832 0.0135192 0.005)
(-0.079747 0.0135192 0.005)
(-0.0762966 0.0135192 0.005)
(-0.07293 0.0135192 0.005)
(-0.0696451 0.0135192 0.005)
(-0.0664399 0.0135192 0.005)
(-0.0633125 0.0135192 0.005)
(-0.060261 0.0135192 0.005)
(-0.0572836 0.0135192 0.005)
(-0.0543784 0.0135192 0.005)
(-0.0515438 0.0135192 0.005)
(-0.0487779 0.0135192 0.005)
(-0.0460792 0.0135192 0.005)
(-0.043446 0.0135192 0.005)
(-0.0408767 0.0135192 0.005)
(-0.0383698 0.0135192 0.005)
(-0.0359237 0.0135192 0.005)
(-0.0335369 0.0135192 0.005)
(-0.0312082 0.0135192 0.005)
(-0.0289359 0.0135192 0.005)
(-0.0267188 0.0135192 0.005)
(-0.0245555 0.0135192 0.005)
(-0.0224447 0.0135192 0.005)
(-0.0203851 0.0135192 0.005)
(-0.0183755 0.0135192 0.005)
(-0.0164147 0.0135192 0.005)
(-0.0145015 0.0135192 0.005)
(-0.0126347 0.0135192 0.005)
(-0.0108133 0.0135192 0.005)
(-0.00903603 0.0135192 0.005)
(-0.00730191 0.0135192 0.005)
(-0.00560988 0.0135192 0.005)
(-0.00395892 0.0135192 0.005)
(-0.00234803 0.0135192 0.005)
(-0.000776241 0.0135192 0.005)
(-0.148213 0.0136705 0.005)
(-0.1431 0.0136705 0.005)
(-0.138112 0.0136705 0.005)
(-0.133245 0.0136705 0.005)
(-0.128496 0.0136705 0.005)
(-0.123863 0.0136705 0.005)
(-0.119342 0.0136705 0.005)
(-0.11493 0.0136705 0.005)
(-0.110626 0.0136705 0.005)
(-0.106426 0.0136705 0.005)
(-0.102328 0.0136705 0.005)
(-0.0983298 0.0136705 0.005)
(-0.0944284 0.0136705 0.005)
(-0.0906217 0.0136705 0.005)
(-0.0869073 0.0136705 0.005)
(-0.0832832 0.0136705 0.005)
(-0.079747 0.0136705 0.005)
(-0.0762966 0.0136705 0.005)
(-0.07293 0.0136705 0.005)
(-0.0696451 0.0136705 0.005)
(-0.0664399 0.0136705 0.005)
(-0.0633125 0.0136705 0.005)
(-0.060261 0.0136705 0.005)
(-0.0572836 0.0136705 0.005)
(-0.0543784 0.0136705 0.005)
(-0.0515438 0.0136705 0.005)
(-0.0487779 0.0136705 0.005)
(-0.0460792 0.0136705 0.005)
(-0.043446 0.0136705 0.005)
(-0.0408767 0.0136705 0.005)
(-0.0383698 0.0136705 0.005)
(-0.0359237 0.0136705 0.005)
(-0.0335369 0.0136705 0.005)
(-0.0312082 0.0136705 0.005)
(-0.0289359 0.0136705 0.005)
(-0.0267188 0.0136705 0.005)
(-0.0245555 0.0136705 0.005)
(-0.0224447 0.0136705 0.005)
(-0.0203851 0.0136705 0.005)
(-0.0183755 0.0136705 0.005)
(-0.0164147 0.0136705 0.005)
(-0.0145015 0.0136705 0.005)
(-0.0126347 0.0136705 0.005)
(-0.0108133 0.0136705 0.005)
(-0.00903603 0.0136705 0.005)
(-0.00730191 0.0136705 0.005)
(-0.00560988 0.0136705 0.005)
(-0.00395892 0.0136705 0.005)
(-0.00234803 0.0136705 0.005)
(-0.000776241 0.0136705 0.005)
(-0.148213 0.0138441 0.005)
(-0.1431 0.0138441 0.005)
(-0.138112 0.0138441 0.005)
(-0.133245 0.0138441 0.005)
(-0.128496 0.0138441 0.005)
(-0.123863 0.0138441 0.005)
(-0.119342 0.0138441 0.005)
(-0.11493 0.0138441 0.005)
(-0.110626 0.0138441 0.005)
(-0.106426 0.0138441 0.005)
(-0.102328 0.0138441 0.005)
(-0.0983298 0.0138441 0.005)
(-0.0944284 0.0138441 0.005)
(-0.0906217 0.0138441 0.005)
(-0.0869073 0.0138441 0.005)
(-0.0832832 0.0138441 0.005)
(-0.079747 0.0138441 0.005)
(-0.0762966 0.0138441 0.005)
(-0.07293 0.0138441 0.005)
(-0.0696451 0.0138441 0.005)
(-0.0664399 0.0138441 0.005)
(-0.0633125 0.0138441 0.005)
(-0.060261 0.0138441 0.005)
(-0.0572836 0.0138441 0.005)
(-0.0543784 0.0138441 0.005)
(-0.0515438 0.0138441 0.005)
(-0.0487779 0.0138441 0.005)
(-0.0460792 0.0138441 0.005)
(-0.043446 0.0138441 0.005)
(-0.0408767 0.0138441 0.005)
(-0.0383698 0.0138441 0.005)
(-0.0359237 0.0138441 0.005)
(-0.0335369 0.0138441 0.005)
(-0.0312082 0.0138441 0.005)
(-0.0289359 0.0138441 0.005)
(-0.0267188 0.0138441 0.005)
(-0.0245555 0.0138441 0.005)
(-0.0224447 0.0138441 0.005)
(-0.0203851 0.0138441 0.005)
(-0.0183755 0.0138441 0.005)
(-0.0164147 0.0138441 0.005)
(-0.0145015 0.0138441 0.005)
(-0.0126347 0.0138441 0.005)
(-0.0108133 0.0138441 0.005)
(-0.00903603 0.0138441 0.005)
(-0.00730191 0.0138441 0.005)
(-0.00560988 0.0138441 0.005)
(-0.00395892 0.0138441 0.005)
(-0.00234803 0.0138441 0.005)
(-0.000776241 0.0138441 0.005)
(-0.148213 0.014043 0.005)
(-0.1431 0.014043 0.005)
(-0.138112 0.014043 0.005)
(-0.133245 0.014043 0.005)
(-0.128496 0.014043 0.005)
(-0.123863 0.014043 0.005)
(-0.119342 0.014043 0.005)
(-0.11493 0.014043 0.005)
(-0.110626 0.014043 0.005)
(-0.106426 0.014043 0.005)
(-0.102328 0.014043 0.005)
(-0.0983298 0.014043 0.005)
(-0.0944284 0.014043 0.005)
(-0.0906217 0.014043 0.005)
(-0.0869073 0.014043 0.005)
(-0.0832832 0.014043 0.005)
(-0.079747 0.014043 0.005)
(-0.0762966 0.014043 0.005)
(-0.07293 0.014043 0.005)
(-0.0696451 0.014043 0.005)
(-0.0664399 0.014043 0.005)
(-0.0633125 0.014043 0.005)
(-0.060261 0.014043 0.005)
(-0.0572836 0.014043 0.005)
(-0.0543784 0.014043 0.005)
(-0.0515438 0.014043 0.005)
(-0.0487779 0.014043 0.005)
(-0.0460792 0.014043 0.005)
(-0.043446 0.014043 0.005)
(-0.0408767 0.014043 0.005)
(-0.0383698 0.014043 0.005)
(-0.0359237 0.014043 0.005)
(-0.0335369 0.014043 0.005)
(-0.0312082 0.014043 0.005)
(-0.0289359 0.014043 0.005)
(-0.0267188 0.014043 0.005)
(-0.0245555 0.014043 0.005)
(-0.0224447 0.014043 0.005)
(-0.0203851 0.014043 0.005)
(-0.0183755 0.014043 0.005)
(-0.0164147 0.014043 0.005)
(-0.0145015 0.014043 0.005)
(-0.0126347 0.014043 0.005)
(-0.0108133 0.014043 0.005)
(-0.00903603 0.014043 0.005)
(-0.00730191 0.014043 0.005)
(-0.00560988 0.014043 0.005)
(-0.00395892 0.014043 0.005)
(-0.00234803 0.014043 0.005)
(-0.000776241 0.014043 0.005)
(-0.148213 0.0142711 0.005)
(-0.1431 0.0142711 0.005)
(-0.138112 0.0142711 0.005)
(-0.133245 0.0142711 0.005)
(-0.128496 0.0142711 0.005)
(-0.123863 0.0142711 0.005)
(-0.119342 0.0142711 0.005)
(-0.11493 0.0142711 0.005)
(-0.110626 0.0142711 0.005)
(-0.106426 0.0142711 0.005)
(-0.102328 0.0142711 0.005)
(-0.0983298 0.0142711 0.005)
(-0.0944284 0.0142711 0.005)
(-0.0906217 0.0142711 0.005)
(-0.0869073 0.0142711 0.005)
(-0.0832832 0.0142711 0.005)
(-0.079747 0.0142711 0.005)
(-0.0762966 0.0142711 0.005)
(-0.07293 0.0142711 0.005)
(-0.0696451 0.0142711 0.005)
(-0.0664399 0.0142711 0.005)
(-0.0633125 0.0142711 0.005)
(-0.060261 0.0142711 0.005)
(-0.0572836 0.0142711 0.005)
(-0.0543784 0.0142711 0.005)
(-0.0515438 0.0142711 0.005)
(-0.0487779 0.0142711 0.005)
(-0.0460792 0.0142711 0.005)
(-0.043446 0.0142711 0.005)
(-0.0408767 0.0142711 0.005)
(-0.0383698 0.0142711 0.005)
(-0.0359237 0.0142711 0.005)
(-0.0335369 0.0142711 0.005)
(-0.0312082 0.0142711 0.005)
(-0.0289359 0.0142711 0.005)
(-0.0267188 0.0142711 0.005)
(-0.0245555 0.0142711 0.005)
(-0.0224447 0.0142711 0.005)
(-0.0203851 0.0142711 0.005)
(-0.0183755 0.0142711 0.005)
(-0.0164147 0.0142711 0.005)
(-0.0145015 0.0142711 0.005)
(-0.0126347 0.0142711 0.005)
(-0.0108133 0.0142711 0.005)
(-0.00903603 0.0142711 0.005)
(-0.00730191 0.0142711 0.005)
(-0.00560988 0.0142711 0.005)
(-0.00395892 0.0142711 0.005)
(-0.00234803 0.0142711 0.005)
(-0.000776241 0.0142711 0.005)
(-0.148213 0.0145326 0.005)
(-0.1431 0.0145326 0.005)
(-0.138112 0.0145326 0.005)
(-0.133245 0.0145326 0.005)
(-0.128496 0.0145326 0.005)
(-0.123863 0.0145326 0.005)
(-0.119342 0.0145326 0.005)
(-0.11493 0.0145326 0.005)
(-0.110626 0.0145326 0.005)
(-0.106426 0.0145326 0.005)
(-0.102328 0.0145326 0.005)
(-0.0983298 0.0145326 0.005)
(-0.0944284 0.0145326 0.005)
(-0.0906217 0.0145326 0.005)
(-0.0869073 0.0145326 0.005)
(-0.0832832 0.0145326 0.005)
(-0.079747 0.0145326 0.005)
(-0.0762966 0.0145326 0.005)
(-0.07293 0.0145326 0.005)
(-0.0696451 0.0145326 0.005)
(-0.0664399 0.0145326 0.005)
(-0.0633125 0.0145326 0.005)
(-0.060261 0.0145326 0.005)
(-0.0572836 0.0145326 0.005)
(-0.0543784 0.0145326 0.005)
(-0.0515438 0.0145326 0.005)
(-0.0487779 0.0145326 0.005)
(-0.0460792 0.0145326 0.005)
(-0.043446 0.0145326 0.005)
(-0.0408767 0.0145326 0.005)
(-0.0383698 0.0145326 0.005)
(-0.0359237 0.0145326 0.005)
(-0.0335369 0.0145326 0.005)
(-0.0312082 0.0145326 0.005)
(-0.0289359 0.0145326 0.005)
(-0.0267188 0.0145326 0.005)
(-0.0245555 0.0145326 0.005)
(-0.0224447 0.0145326 0.005)
(-0.0203851 0.0145326 0.005)
(-0.0183755 0.0145326 0.005)
(-0.0164147 0.0145326 0.005)
(-0.0145015 0.0145326 0.005)
(-0.0126347 0.0145326 0.005)
(-0.0108133 0.0145326 0.005)
(-0.00903603 0.0145326 0.005)
(-0.00730191 0.0145326 0.005)
(-0.00560988 0.0145326 0.005)
(-0.00395892 0.0145326 0.005)
(-0.00234803 0.0145326 0.005)
(-0.000776241 0.0145326 0.005)
(-0.148213 0.0148323 0.005)
(-0.1431 0.0148323 0.005)
(-0.138112 0.0148323 0.005)
(-0.133245 0.0148323 0.005)
(-0.128496 0.0148323 0.005)
(-0.123863 0.0148323 0.005)
(-0.119342 0.0148323 0.005)
(-0.11493 0.0148323 0.005)
(-0.110626 0.0148323 0.005)
(-0.106426 0.0148323 0.005)
(-0.102328 0.0148323 0.005)
(-0.0983298 0.0148323 0.005)
(-0.0944284 0.0148323 0.005)
(-0.0906217 0.0148323 0.005)
(-0.0869073 0.0148323 0.005)
(-0.0832832 0.0148323 0.005)
(-0.079747 0.0148323 0.005)
(-0.0762966 0.0148323 0.005)
(-0.07293 0.0148323 0.005)
(-0.0696451 0.0148323 0.005)
(-0.0664399 0.0148323 0.005)
(-0.0633125 0.0148323 0.005)
(-0.060261 0.0148323 0.005)
(-0.0572836 0.0148323 0.005)
(-0.0543784 0.0148323 0.005)
(-0.0515438 0.0148323 0.005)
(-0.0487779 0.0148323 0.005)
(-0.0460792 0.0148323 0.005)
(-0.043446 0.0148323 0.005)
(-0.0408767 0.0148323 0.005)
(-0.0383698 0.0148323 0.005)
(-0.0359237 0.0148323 0.005)
(-0.0335369 0.0148323 0.005)
(-0.0312082 0.0148323 0.005)
(-0.0289359 0.0148323 0.005)
(-0.0267188 0.0148323 0.005)
(-0.0245555 0.0148323 0.005)
(-0.0224447 0.0148323 0.005)
(-0.0203851 0.0148323 0.005)
(-0.0183755 0.0148323 0.005)
(-0.0164147 0.0148323 0.005)
(-0.0145015 0.0148323 0.005)
(-0.0126347 0.0148323 0.005)
(-0.0108133 0.0148323 0.005)
(-0.00903603 0.0148323 0.005)
(-0.00730191 0.0148323 0.005)
(-0.00560988 0.0148323 0.005)
(-0.00395892 0.0148323 0.005)
(-0.00234803 0.0148323 0.005)
(-0.000776241 0.0148323 0.005)
(-0.148213 0.015176 0.005)
(-0.1431 0.015176 0.005)
(-0.138112 0.015176 0.005)
(-0.133245 0.015176 0.005)
(-0.128496 0.015176 0.005)
(-0.123863 0.015176 0.005)
(-0.119342 0.015176 0.005)
(-0.11493 0.015176 0.005)
(-0.110626 0.015176 0.005)
(-0.106426 0.015176 0.005)
(-0.102328 0.015176 0.005)
(-0.0983298 0.015176 0.005)
(-0.0944284 0.015176 0.005)
(-0.0906217 0.015176 0.005)
(-0.0869073 0.015176 0.005)
(-0.0832832 0.015176 0.005)
(-0.079747 0.015176 0.005)
(-0.0762966 0.015176 0.005)
(-0.07293 0.015176 0.005)
(-0.0696451 0.015176 0.005)
(-0.0664399 0.015176 0.005)
(-0.0633125 0.015176 0.005)
(-0.060261 0.015176 0.005)
(-0.0572836 0.015176 0.005)
(-0.0543784 0.015176 0.005)
(-0.0515438 0.015176 0.005)
(-0.0487779 0.015176 0.005)
(-0.0460792 0.015176 0.005)
(-0.043446 0.015176 0.005)
(-0.0408767 0.015176 0.005)
(-0.0383698 0.015176 0.005)
(-0.0359237 0.015176 0.005)
(-0.0335369 0.015176 0.005)
(-0.0312082 0.015176 0.005)
(-0.0289359 0.015176 0.005)
(-0.0267188 0.015176 0.005)
(-0.0245555 0.015176 0.005)
(-0.0224447 0.015176 0.005)
(-0.0203851 0.015176 0.005)
(-0.0183755 0.015176 0.005)
(-0.0164147 0.015176 0.005)
(-0.0145015 0.015176 0.005)
(-0.0126347 0.015176 0.005)
(-0.0108133 0.015176 0.005)
(-0.00903603 0.015176 0.005)
(-0.00730191 0.015176 0.005)
(-0.00560988 0.015176 0.005)
(-0.00395892 0.015176 0.005)
(-0.00234803 0.015176 0.005)
(-0.000776241 0.015176 0.005)
(-0.148213 0.0155701 0.005)
(-0.1431 0.0155701 0.005)
(-0.138112 0.0155701 0.005)
(-0.133245 0.0155701 0.005)
(-0.128496 0.0155701 0.005)
(-0.123863 0.0155701 0.005)
(-0.119342 0.0155701 0.005)
(-0.11493 0.0155701 0.005)
(-0.110626 0.0155701 0.005)
(-0.106426 0.0155701 0.005)
(-0.102328 0.0155701 0.005)
(-0.0983298 0.0155701 0.005)
(-0.0944284 0.0155701 0.005)
(-0.0906217 0.0155701 0.005)
(-0.0869073 0.0155701 0.005)
(-0.0832832 0.0155701 0.005)
(-0.079747 0.0155701 0.005)
(-0.0762966 0.0155701 0.005)
(-0.07293 0.0155701 0.005)
(-0.0696451 0.0155701 0.005)
(-0.0664399 0.0155701 0.005)
(-0.0633125 0.0155701 0.005)
(-0.060261 0.0155701 0.005)
(-0.0572836 0.0155701 0.005)
(-0.0543784 0.0155701 0.005)
(-0.0515438 0.0155701 0.005)
(-0.0487779 0.0155701 0.005)
(-0.0460792 0.0155701 0.005)
(-0.043446 0.0155701 0.005)
(-0.0408767 0.0155701 0.005)
(-0.0383698 0.0155701 0.005)
(-0.0359237 0.0155701 0.005)
(-0.0335369 0.0155701 0.005)
(-0.0312082 0.0155701 0.005)
(-0.0289359 0.0155701 0.005)
(-0.0267188 0.0155701 0.005)
(-0.0245555 0.0155701 0.005)
(-0.0224447 0.0155701 0.005)
(-0.0203851 0.0155701 0.005)
(-0.0183755 0.0155701 0.005)
(-0.0164147 0.0155701 0.005)
(-0.0145015 0.0155701 0.005)
(-0.0126347 0.0155701 0.005)
(-0.0108133 0.0155701 0.005)
(-0.00903603 0.0155701 0.005)
(-0.00730191 0.0155701 0.005)
(-0.00560988 0.0155701 0.005)
(-0.00395892 0.0155701 0.005)
(-0.00234803 0.0155701 0.005)
(-0.000776241 0.0155701 0.005)
(-0.148213 0.0160218 0.005)
(-0.1431 0.0160218 0.005)
(-0.138112 0.0160218 0.005)
(-0.133245 0.0160218 0.005)
(-0.128496 0.0160218 0.005)
(-0.123863 0.0160218 0.005)
(-0.119342 0.0160218 0.005)
(-0.11493 0.0160218 0.005)
(-0.110626 0.0160218 0.005)
(-0.106426 0.0160218 0.005)
(-0.102328 0.0160218 0.005)
(-0.0983298 0.0160218 0.005)
(-0.0944284 0.0160218 0.005)
(-0.0906217 0.0160218 0.005)
(-0.0869073 0.0160218 0.005)
(-0.0832832 0.0160218 0.005)
(-0.079747 0.0160218 0.005)
(-0.0762966 0.0160218 0.005)
(-0.07293 0.0160218 0.005)
(-0.0696451 0.0160218 0.005)
(-0.0664399 0.0160218 0.005)