/*--------------------------------*- C++ -*----------------------------------*\
| =========                 |                                                 |
| \\      /  F ield         | OpenFOAM: The Open Source CFD Toolbox           |
|  \\    /   O peration     | Version:  2412                                  |
|   \\  /    A nd           | Website:  www.openfoam.com                      |
|    \\/     M anipulation  |                                                 |
\*---------------------------------------------------------------------------*/
FoamFile
{
    version     2.0;
    format      ascii;
    arch        "LSB;label=32;scalar=64";
    class       volScalarField;
    location    "1500";
    object      cp;
}
// * * * * * * * * * * * * * * * * * * * * * * * * * * * * * * * * * * * * * //

dimensions      [0 0 0 0 0 0 0];

internalField   nonuniform List<scalar> 
18000
(
-0.128675
-0.140247
-0.145451
-0.146231
-0.145563
-0.145097
-0.14548
-0.146095
-0.146678
-0.147254
-0.147838
-0.148426
-0.14901
-0.149593
-0.150175
-0.150764
-0.15136
-0.151963
-0.152577
-0.153207
-0.153853
-0.154514
-0.155192
-0.155895
-0.156621
-0.157372
-0.15815
-0.158957
-0.159795
-0.160669
-0.161581
-0.162531
-0.163524
-0.164562
-0.165649
-0.166788
-0.167984
-0.169243
-0.170573
-0.17198
-0.173474
-0.175067
-0.176774
-0.178612
-0.180621
-0.182808
-0.185343
-0.188067
-0.19218
-0.195936
-0.128623
-0.140242
-0.145449
-0.146232
-0.145564
-0.145098
-0.14548
-0.146095
-0.146678
-0.147254
-0.147838
-0.148426
-0.14901
-0.149593
-0.150175
-0.150764
-0.15136
-0.151963
-0.152577
-0.153207
-0.153853
-0.154514
-0.155192
-0.155895
-0.156621
-0.157372
-0.158151
-0.158957
-0.159795
-0.16067
-0.161581
-0.162531
-0.163524
-0.164562
-0.165649
-0.166788
-0.167984
-0.169244
-0.170573
-0.171981
-0.173475
-0.175067
-0.176774
-0.178612
-0.180622
-0.182808
-0.185344
-0.188068
-0.192179
-0.195922
-0.128632
-0.140238
-0.145447
-0.146231
-0.145565
-0.145099
-0.145481
-0.146096
-0.146679
-0.147254
-0.147839
-0.148426
-0.14901
-0.149594
-0.150175
-0.150764
-0.15136
-0.151963
-0.152577
-0.153208
-0.153853
-0.154514
-0.155192
-0.155895
-0.156621
-0.157372
-0.158151
-0.158957
-0.159795
-0.16067
-0.161581
-0.162532
-0.163524
-0.164562
-0.165649
-0.166788
-0.167984
-0.169244
-0.170574
-0.171981
-0.173475
-0.175068
-0.176775
-0.178613
-0.180623
-0.182809
-0.185345
-0.188069
-0.192171
-0.195892
-0.128675
-0.140232
-0.145443
-0.146228
-0.145564
-0.145099
-0.145481
-0.146096
-0.146679
-0.147255
-0.147839
-0.148426
-0.149011
-0.149594
-0.150176
-0.150764
-0.151361
-0.151963
-0.152577
-0.153208
-0.153854
-0.154514
-0.155192
-0.155895
-0.156621
-0.157373
-0.158151
-0.158958
-0.159796
-0.16067
-0.161581
-0.162532
-0.163524
-0.164563
-0.165649
-0.166789
-0.167985
-0.169245
-0.170574
-0.171982
-0.173476
-0.175068
-0.176776
-0.178614
-0.180624
-0.18281
-0.185347
-0.18807
-0.192151
-0.195841
-0.128727
-0.140222
-0.145436
-0.14622
-0.145557
-0.145096
-0.14548
-0.146096
-0.146679
-0.147255
-0.147839
-0.148427
-0.149011
-0.149594
-0.150176
-0.150764
-0.151361
-0.151963
-0.152577
-0.153208
-0.153854
-0.154515
-0.155193
-0.155895
-0.156622
-0.157373
-0.158151
-0.158958
-0.159796
-0.160671
-0.161582
-0.162533
-0.163525
-0.164563
-0.16565
-0.166789
-0.167986
-0.169246
-0.170575
-0.171983
-0.173477
-0.17507
-0.176778
-0.178615
-0.180626
-0.182812
-0.185349
-0.188072
-0.19212
-0.195766
-0.128787
-0.140206
-0.145424
-0.146205
-0.145545
-0.145091
-0.145477
-0.146093
-0.146677
-0.147254
-0.147838
-0.148426
-0.14901
-0.149594
-0.150176
-0.150764
-0.151361
-0.151964
-0.152578
-0.153208
-0.153854
-0.154515
-0.155193
-0.155896
-0.156622
-0.157373
-0.158152
-0.158959
-0.159797
-0.160671
-0.161583
-0.162533
-0.163526
-0.164564
-0.165651
-0.166791
-0.167987
-0.169247
-0.170577
-0.171984
-0.173479
-0.175072
-0.17678
-0.178617
-0.180628
-0.182814
-0.185351
-0.188073
-0.192075
-0.19567
-0.128858
-0.140185
-0.145408
-0.146186
-0.145529
-0.145084
-0.145471
-0.146089
-0.146674
-0.147251
-0.147836
-0.148425
-0.149009
-0.149593
-0.150175
-0.150764
-0.15136
-0.151963
-0.152577
-0.153208
-0.153854
-0.154515
-0.155193
-0.155896
-0.156622
-0.157374
-0.158152
-0.158959
-0.159797
-0.160672
-0.161583
-0.162534
-0.163527
-0.164565
-0.165652
-0.166792
-0.167988
-0.169248
-0.170578
-0.171986
-0.173481
-0.175073
-0.176782
-0.178619
-0.18063
-0.182815
-0.185352
-0.188072
-0.192016
-0.195551
-0.128942
-0.140157
-0.145387
-0.146163
-0.145513
-0.145077
-0.145464
-0.146082
-0.146668
-0.147246
-0.147833
-0.148422
-0.149007
-0.149591
-0.150173
-0.150762
-0.151359
-0.151962
-0.152577
-0.153208
-0.153854
-0.154515
-0.155193
-0.155896
-0.156622
-0.157374
-0.158153
-0.158959
-0.159798
-0.160673
-0.161584
-0.162535
-0.163528
-0.164566
-0.165653
-0.166793
-0.167989
-0.169249
-0.17058
-0.171987
-0.173482
-0.175075
-0.176783
-0.178621
-0.180632
-0.182816
-0.185351
-0.188067
-0.191942
-0.195407
-0.129043
-0.140124
-0.145362
-0.14614
-0.145498
-0.145069
-0.145456
-0.146074
-0.14666
-0.14724
-0.147827
-0.148417
-0.149003
-0.149587
-0.15017
-0.15076
-0.151357
-0.15196
-0.152575
-0.153206
-0.153852
-0.154514
-0.155192
-0.155895
-0.156622
-0.157374
-0.158152
-0.158959
-0.159798
-0.160673
-0.161584
-0.162535
-0.163528
-0.164567
-0.165654
-0.166793
-0.16799
-0.16925
-0.170581
-0.171988
-0.173483
-0.175076
-0.176784
-0.178621
-0.180633
-0.182815
-0.185347
-0.188058
-0.19185
-0.195235
-0.129163
-0.140085
-0.145333
-0.146116
-0.145486
-0.145063
-0.145448
-0.146066
-0.146652
-0.147232
-0.14782
-0.14841
-0.148997
-0.149582
-0.150166
-0.150756
-0.151353
-0.151957
-0.152572
-0.153203
-0.15385
-0.154511
-0.15519
-0.155893
-0.15662
-0.157372
-0.158151
-0.158958
-0.159797
-0.160672
-0.161584
-0.162535
-0.163528
-0.164566
-0.165654
-0.166794
-0.16799
-0.16925
-0.170581
-0.171989
-0.173484
-0.175076
-0.176784
-0.178621
-0.180631
-0.182811
-0.185339
-0.188042
-0.191738
-0.195032
-0.129305
-0.140039
-0.145297
-0.146089
-0.145476
-0.145062
-0.145442
-0.146057
-0.146645
-0.147224
-0.147812
-0.148402
-0.148989
-0.149575
-0.150159
-0.15075
-0.151348
-0.151952
-0.152567
-0.153199
-0.153846
-0.154508
-0.155187
-0.15589
-0.156617
-0.15737
-0.158149
-0.158956
-0.159795
-0.16067
-0.161582
-0.162533
-0.163526
-0.164565
-0.165653
-0.166792
-0.167989
-0.169249
-0.17058
-0.171988
-0.173482
-0.175075
-0.176782
-0.178618
-0.180627
-0.182804
-0.185324
-0.188017
-0.191605
-0.194793
-0.129472
-0.139986
-0.145256
-0.146057
-0.145465
-0.145066
-0.145441
-0.146051
-0.146636
-0.147215
-0.147804
-0.148394
-0.148981
-0.149567
-0.150151
-0.150742
-0.151341
-0.151945
-0.152561
-0.153193
-0.15384
-0.154502
-0.155182
-0.155886
-0.156613
-0.157365
-0.158145
-0.158952
-0.159791
-0.160666
-0.161578
-0.16253
-0.163523
-0.164562
-0.165649
-0.166789
-0.167986
-0.169246
-0.170576
-0.171984
-0.173478
-0.17507
-0.176777
-0.178611
-0.180619
-0.182791
-0.185301
-0.187979
-0.191447
-0.194518
-0.129667
-0.139927
-0.145207
-0.14602
-0.145453
-0.145071
-0.145443
-0.146051
-0.146631
-0.147207
-0.147794
-0.148384
-0.148973
-0.149559
-0.150143
-0.150734
-0.151333
-0.151937
-0.152553
-0.153186
-0.153833
-0.154495
-0.155175
-0.155879
-0.156607
-0.157359
-0.158139
-0.158946
-0.159785
-0.160661
-0.161573
-0.162524
-0.163518
-0.164556
-0.165644
-0.166783
-0.16798
-0.16924
-0.17057
-0.171977
-0.173471
-0.175062
-0.176767
-0.178599
-0.180603
-0.18277
-0.185265
-0.187924
-0.191258
-0.194202
-0.129894
-0.13986
-0.145149
-0.145976
-0.145438
-0.145076
-0.145447
-0.146052
-0.146631
-0.147204
-0.147787
-0.148375
-0.148963
-0.149548
-0.150134
-0.150725
-0.151325
-0.151929
-0.152544
-0.153177
-0.153825
-0.154487
-0.155166
-0.15587
-0.156598
-0.157351
-0.158131
-0.158938
-0.159777
-0.160653
-0.161565
-0.162516
-0.163509
-0.164548
-0.165635
-0.166775
-0.16797
-0.16923
-0.17056
-0.171966
-0.173459
-0.175048
-0.176752
-0.17858
-0.18058
-0.182738
-0.185213
-0.187844
-0.191033
-0.193843
-0.130156
-0.139787
-0.14508
-0.145927
-0.14542
-0.145082
-0.145452
-0.146054
-0.146632
-0.147203
-0.147785
-0.148372
-0.148956
-0.149538
-0.150124
-0.150714
-0.151313
-0.151918
-0.152536
-0.153168
-0.153816
-0.154478
-0.155157
-0.155861
-0.156588
-0.157341
-0.158121
-0.158928
-0.159767
-0.160642
-0.161554
-0.162505
-0.163498
-0.164537
-0.165623
-0.166762
-0.167957
-0.169216
-0.170545
-0.17195
-0.173441
-0.175028
-0.176729
-0.178552
-0.180545
-0.182693
-0.185142
-0.187738
-0.190769
-0.193435
-0.130457
-0.139709
-0.145001
-0.14587
-0.145399
-0.145089
-0.145457
-0.146057
-0.146633
-0.147203
-0.147784
-0.14837
-0.148953
-0.149536
-0.150119
-0.150706
-0.151302
-0.151907
-0.152524
-0.153156
-0.153802
-0.154465
-0.155147
-0.155851
-0.156578
-0.157331
-0.158111
-0.158918
-0.159755
-0.160629
-0.161541
-0.162491
-0.163484
-0.164522
-0.165608
-0.166746
-0.16794
-0.169198
-0.170525
-0.171928
-0.173416
-0.175
-0.176697
-0.178514
-0.180497
-0.182631
-0.185045
-0.187597
-0.190461
-0.192974
-0.1308
-0.139626
-0.144908
-0.145805
-0.145374
-0.145095
-0.145463
-0.146059
-0.146634
-0.147202
-0.147783
-0.148368
-0.148951
-0.149532
-0.150115
-0.150703
-0.151298
-0.151902
-0.152517
-0.153145
-0.153789
-0.154451
-0.155133
-0.155837
-0.156563
-0.157315
-0.158094
-0.158902
-0.159741
-0.160616
-0.161527
-0.162477
-0.163469
-0.164506
-0.165591
-0.166727
-0.167919
-0.169174
-0.170498
-0.171899
-0.173384
-0.174963
-0.176653
-0.178462
-0.180432
-0.182547
-0.184917
-0.187414
-0.190104
-0.192453
-0.131189
-0.139543
-0.1448
-0.145731
-0.145346
-0.145102
-0.14547
-0.146062
-0.146635
-0.147201
-0.147781
-0.148365
-0.148947
-0.149529
-0.150111
-0.150699
-0.151293
-0.151897
-0.152512
-0.15314
-0.153784
-0.154446
-0.155126
-0.155826
-0.15655
-0.157299
-0.158075
-0.158883
-0.159723
-0.160596
-0.161505
-0.162454
-0.163444
-0.16448
-0.165563
-0.166699
-0.167891
-0.169145
-0.170467
-0.171863
-0.173344
-0.174916
-0.176598
-0.178395
-0.180347
-0.182437
-0.184753
-0.18718
-0.189691
-0.191863
-0.131627
-0.139461
-0.144676
-0.145648
-0.145312
-0.145108
-0.145477
-0.146065
-0.146636
-0.147201
-0.147778
-0.148362
-0.148943
-0.149524
-0.150106
-0.150693
-0.151288
-0.151891
-0.152506
-0.153134
-0.153777
-0.154438
-0.155117
-0.155817
-0.156541
-0.157289
-0.158065
-0.158872
-0.159709
-0.160579
-0.161485
-0.162431
-0.163417
-0.164449
-0.165529
-0.166661
-0.167851
-0.169102
-0.170419
-0.17181
-0.173284
-0.174847
-0.176518
-0.178299
-0.180227
-0.182284
-0.184533
-0.186875
-0.189206
-0.191197
-0.132115
-0.139385
-0.144534
-0.145556
-0.145274
-0.145113
-0.145484
-0.146067
-0.146637
-0.147199
-0.147775
-0.148358
-0.148938
-0.149518
-0.1501
-0.150687
-0.151281
-0.151884
-0.152498
-0.153125
-0.153768
-0.154428
-0.155107
-0.155806
-0.156529
-0.157277
-0.158051
-0.158856
-0.159691
-0.16056
-0.161465
-0.162408
-0.163393
-0.164423
-0.1655
-0.166629
-0.167813
-0.169058
-0.170368
-0.17175
-0.173213
-0.174764
-0.176417
-0.178176
-0.18007
-0.182084
-0.184251
-0.186489
-0.188636
-0.19045
-0.132654
-0.139321
-0.144374
-0.145452
-0.145231
-0.145117
-0.145492
-0.14607
-0.146637
-0.147197
-0.147771
-0.148352
-0.148932
-0.149511
-0.150093
-0.150679
-0.151272
-0.151874
-0.152488
-0.153115
-0.153757
-0.154416
-0.155094
-0.155792
-0.156514
-0.15726
-0.158033
-0.158836
-0.15967
-0.160537
-0.161439
-0.16238
-0.163362
-0.164387
-0.16546
-0.166583
-0.167762
-0.169
-0.170302
-0.171675
-0.173126
-0.174662
-0.176295
-0.178027
-0.17988
-0.18184
-0.183912
-0.186029
-0.187998
-0.18964
-0.133245
-0.139276
-0.144196
-0.145338
-0.145183
-0.145119
-0.1455
-0.146072
-0.146637
-0.147195
-0.147767
-0.148346
-0.148924
-0.149503
-0.150083
-0.150668
-0.151261
-0.151863
-0.152475
-0.153101
-0.153742
-0.1544
-0.155077
-0.155774
-0.156494
-0.157239
-0.15801
-0.158811
-0.159642
-0.160506
-0.161406
-0.162343
-0.16332
-0.164341
-0.165409
-0.166527
-0.167698
-0.168928
-0.17022
-0.171581
-0.173016
-0.174532
-0.176138
-0.177837
-0.179639
-0.181534
-0.183502
-0.185485
-0.187286
-0.188771
-0.133883
-0.139257
-0.144001
-0.145213
-0.145129
-0.145119
-0.145507
-0.146074
-0.146636
-0.147191
-0.147761
-0.148338
-0.148915
-0.149492
-0.150071
-0.150656
-0.151247
-0.151848
-0.152459
-0.153084
-0.153724
-0.15438
-0.155055
-0.155751
-0.156469
-0.157211
-0.15798
-0.158778
-0.159606
-0.160467
-0.161362
-0.162295
-0.163267
-0.164282
-0.165343
-0.166453
-0.167616
-0.168834
-0.170113
-0.171457
-0.172873
-0.174364
-0.175938
-0.177595
-0.179338
-0.181155
-0.183011
-0.184853
-0.186498
-0.187843
-0.134565
-0.139273
-0.143792
-0.145075
-0.14507
-0.145115
-0.145513
-0.146075
-0.146634
-0.147187
-0.147753
-0.148328
-0.148903
-0.149479
-0.150057
-0.15064
-0.15123
-0.151829
-0.152439
-0.153063
-0.1537
-0.154355
-0.155028
-0.155721
-0.156437
-0.157176
-0.157942
-0.158736
-0.15956
-0.160416
-0.161306
-0.162233
-0.163199
-0.164206
-0.165258
-0.166358
-0.167508
-0.168713
-0.169975
-0.171299
-0.17269
-0.174151
-0.175684
-0.17729
-0.178964
-0.180691
-0.182428
-0.184124
-0.185623
-0.186845
-0.135284
-0.139331
-0.143576
-0.144927
-0.145005
-0.145107
-0.145518
-0.146074
-0.14663
-0.14718
-0.147743
-0.148315
-0.148888
-0.149462
-0.150038
-0.15062
-0.151208
-0.151806
-0.152414
-0.153035
-0.153671
-0.154323
-0.154993
-0.155683
-0.156395
-0.157131
-0.157892
-0.158681
-0.1595
-0.16035
-0.161233
-0.162153
-0.16311
-0.164107
-0.165148
-0.166235
-0.16737
-0.168557
-0.169798
-0.171097
-0.172456
-0.173878
-0.175362
-0.176907
-0.178501
-0.180128
-0.181739
-0.183289
-0.184652
-0.185765
-0.136031
-0.139439
-0.143359
-0.144768
-0.144936
-0.145095
-0.14552
-0.146071
-0.146624
-0.147172
-0.147731
-0.1483
-0.14887
-0.149441
-0.150015
-0.150594
-0.151181
-0.151776
-0.152382
-0.153
-0.153633
-0.154282
-0.154948
-0.155634
-0.156342
-0.157073
-0.157828
-0.158611
-0.159423
-0.160265
-0.16114
-0.162049
-0.162995
-0.16398
-0.165006
-0.166076
-0.167192
-0.168356
-0.16957
-0.170837
-0.172158
-0.173532
-0.174958
-0.176431
-0.177934
-0.179451
-0.180934
-0.182339
-0.183574
-0.18459
-0.136795
-0.139602
-0.143152
-0.144602
-0.144864
-0.145078
-0.145518
-0.146066
-0.146615
-0.14716
-0.147715
-0.14828
-0.148847
-0.149415
-0.149986
-0.150563
-0.151146
-0.151739
-0.152341
-0.152956
-0.153585
-0.154229
-0.154891
-0.155572
-0.156273
-0.156998
-0.157746
-0.158521
-0.159324
-0.160156
-0.161019
-0.161916
-0.162848
-0.163816
-0.164824
-0.165872
-0.166963
-0.168099
-0.169279
-0.170507
-0.17178
-0.173098
-0.174454
-0.175843
-0.177247
-0.178645
-0.179996
-0.181262
-0.182376
-0.183302
-0.137563
-0.139823
-0.142967
-0.144431
-0.144787
-0.145056
-0.145511
-0.146056
-0.146603
-0.147144
-0.147695
-0.148255
-0.148818
-0.149382
-0.14995
-0.150523
-0.151103
-0.151691
-0.152289
-0.152899
-0.153523
-0.154162
-0.154817
-0.155491
-0.156185
-0.156901
-0.15764
-0.158405
-0.159196
-0.160015
-0.160864
-0.161744
-0.162657
-0.163605
-0.164589
-0.165611
-0.166671
-0.16777
-0.168909
-0.170088
-0.171304
-0.172554
-0.17383
-0.175125
-0.176419
-0.177693
-0.178912
-0.180044
-0.181041
-0.181881
-0.138322
-0.140101
-0.142818
-0.144262
-0.144709
-0.14503
-0.145499
-0.146042
-0.146585
-0.147123
-0.147669
-0.148224
-0.148782
-0.149341
-0.149904
-0.150473
-0.151048
-0.15163
-0.152223
-0.152827
-0.153444
-0.154076
-0.154723
-0.155388
-0.156072
-0.156777
-0.157504
-0.158255
-0.159031
-0.159834
-0.160664
-0.161523
-0.162413
-0.163335
-0.164289
-0.165276
-0.166298
-0.167353
-0.168441
-0.16956
-0.170708
-0.171879
-0.173065
-0.174255
-0.175432
-0.176578
-0.177665
-0.178666
-0.179551
-0.180305
-0.13906
-0.140429
-0.142715
-0.144103
-0.144629
-0.145
-0.145481
-0.146022
-0.146561
-0.147094
-0.147635
-0.148184
-0.148736
-0.149289
-0.149847
-0.150409
-0.150978
-0.151554
-0.152139
-0.152735
-0.153343
-0.153965
-0.154602
-0.155256
-0.155927
-0.156618
-0.15733
-0.158063
-0.15882
-0.159601
-0.160407
-0.16124
-0.1621
-0.162989
-0.163905
-0.164851
-0.165824
-0.166825
-0.167852
-0.168901
-0.169969
-0.171049
-0.172133
-0.17321
-0.174264
-0.175278
-0.176233
-0.177107
-0.177882
-0.178548
-0.139764
-0.140797
-0.142669
-0.143962
-0.14455
-0.144965
-0.145456
-0.145994
-0.146528
-0.147058
-0.147592
-0.148133
-0.148677
-0.149224
-0.149774
-0.150329
-0.150889
-0.151456
-0.152032
-0.152618
-0.153215
-0.153825
-0.154448
-0.155087
-0.155742
-0.156414
-0.157106
-0.157817
-0.158549
-0.159303
-0.16008
-0.160879
-0.161702
-0.162549
-0.163419
-0.164312
-0.165228
-0.166163
-0.167117
-0.168084
-0.16906
-0.170039
-0.171011
-0.171966
-0.172892
-0.173774
-0.174597
-0.175347
-0.176011
-0.176585
-0.140425
-0.141191
-0.142683
-0.143849
-0.144475
-0.144928
-0.145424
-0.145957
-0.146486
-0.147009
-0.147536
-0.148068
-0.148604
-0.149142
-0.149682
-0.150227
-0.150777
-0.151333
-0.151896
-0.152469
-0.153051
-0.153645
-0.154251
-0.15487
-0.155504
-0.156154
-0.15682
-0.157503
-0.158204
-0.158923
-0.159662
-0.160419
-0.161196
-0.161991
-0.162804
-0.163635
-0.16448
-0.165338
-0.166206
-0.167079
-0.167951
-0.168817
-0.169668
-0.170495
-0.171288
-0.172035
-0.172726
-0.173352
-0.173903
-0.174377
-0.141035
-0.141595
-0.142754
-0.14377
-0.144407
-0.144887
-0.145384
-0.145909
-0.146431
-0.146947
-0.147465
-0.147986
-0.148511
-0.149037
-0.149566
-0.150098
-0.150635
-0.151176
-0.151724
-0.15228
-0.152844
-0.153417
-0.154001
-0.154596
-0.155203
-0.155823
-0.156456
-0.157104
-0.157766
-0.158443
-0.159134
-0.15984
-0.16056
-0.161293
-0.162038
-0.162793
-0.163556
-0.164324
-0.165093
-0.16586
-0.166618
-0.167362
-0.168084
-0.168778
-0.169434
-0.170045
-0.170604
-0.171104
-0.171541
-0.171913
-0.141585
-0.141993
-0.142874
-0.143731
-0.144349
-0.144841
-0.145336
-0.145849
-0.14636
-0.146866
-0.147373
-0.147882
-0.148393
-0.148905
-0.149419
-0.149935
-0.150454
-0.150977
-0.151505
-0.152039
-0.152579
-0.153126
-0.153681
-0.154245
-0.154818
-0.155401
-0.155994
-0.156597
-0.15721
-0.157834
-0.158467
-0.15911
-0.15976
-0.160418
-0.161081
-0.161747
-0.162414
-0.163078
-0.163736
-0.164384
-0.165017
-0.165629
-0.166214
-0.166768
-0.167284
-0.167756
-0.168179
-0.168549
-0.168863
-0.16912
-0.142063
-0.142361
-0.143021
-0.143725
-0.144302
-0.144793
-0.145278
-0.145775
-0.146273
-0.146767
-0.147259
-0.147753
-0.148248
-0.148743
-0.149238
-0.149735
-0.150233
-0.150734
-0.151237
-0.151744
-0.152254
-0.152769
-0.15329
-0.153816
-0.154348
-0.154885
-0.155429
-0.155979
-0.156535
-0.157096
-0.157661
-0.15823
-0.158801
-0.159372
-0.159943
-0.160509
-0.16107
-0.161621
-0.16216
-0.162682
-0.163184
-0.163661
-0.164109
-0.164523
-0.1649
-0.165235
-0.165524
-0.165767
-0.165961
-0.166107
-0.142453
-0.142669
-0.143165
-0.143738
-0.144261
-0.144736
-0.145206
-0.145685
-0.146166
-0.146644
-0.14712
-0.147597
-0.148073
-0.148548
-0.149022
-0.149495
-0.149968
-0.150441
-0.150915
-0.151389
-0.151865
-0.152342
-0.152821
-0.153302
-0.153785
-0.15427
-0.154757
-0.155245
-0.155734
-0.156222
-0.15671
-0.157196
-0.157678
-0.158154
-0.158623
-0.159083
-0.15953
-0.159963
-0.160377
-0.160771
-0.161141
-0.161483
-0.161794
-0.162072
-0.162312
-0.162515
-0.162676
-0.162795
-0.162871
-0.162904
-0.142747
-0.142909
-0.143288
-0.143754
-0.144219
-0.144668
-0.145118
-0.145575
-0.146036
-0.146495
-0.146952
-0.147408
-0.147861
-0.148312
-0.148761
-0.149206
-0.149649
-0.15009
-0.150528
-0.150964
-0.151397
-0.151829
-0.152259
-0.152687
-0.153113
-0.153537
-0.153957
-0.154374
-0.154786
-0.155193
-0.155594
-0.155987
-0.156371
-0.156744
-0.157104
-0.157449
-0.157777
-0.158085
-0.158372
-0.158635
-0.158872
-0.159079
-0.159255
-0.159399
-0.159507
-0.15958
-0.159615
-0.159612
-0.159571
-0.159493
-0.142934
-0.14306
-0.143359
-0.143745
-0.144156
-0.144574
-0.145001
-0.145435
-0.145873
-0.146311
-0.146746
-0.147178
-0.147607
-0.14803
-0.148449
-0.148862
-0.14927
-0.149672
-0.150069
-0.15046
-0.150845
-0.151224
-0.151598
-0.151965
-0.152326
-0.152679
-0.153025
-0.153362
-0.153689
-0.154007
-0.154312
-0.154605
-0.154884
-0.155147
-0.155393
-0.15562
-0.155826
-0.156009
-0.156169
-0.156302
-0.156408
-0.156485
-0.156532
-0.156547
-0.15653
-0.15648
-0.156397
-0.15628
-0.156129
-0.155947
-0.142996
-0.143099
-0.143349
-0.14368
-0.14405
-0.14444
-0.144844
-0.145257
-0.145673
-0.146088
-0.146499
-0.146906
-0.147306
-0.147698
-0.148083
-0.148459
-0.148826
-0.149184
-0.149533
-0.149873
-0.150203
-0.150522
-0.150832
-0.15113
-0.151418
-0.151693
-0.151956
-0.152206
-0.152442
-0.152662
-0.152867
-0.153055
-0.153224
-0.153373
-0.153502
-0.153609
-0.153693
-0.153752
-0.153786
-0.153794
-0.153774
-0.153726
-0.153649
-0.153543
-0.153407
-0.153241
-0.153046
-0.152821
-0.152567
-0.152286
-0.142902
-0.142994
-0.14322
-0.143525
-0.143872
-0.144244
-0.144632
-0.145027
-0.145424
-0.145817
-0.146205
-0.146584
-0.146954
-0.147313
-0.14766
-0.147995
-0.148317
-0.148626
-0.148922
-0.149204
-0.149472
-0.149726
-0.149965
-0.150189
-0.150397
-0.150589
-0.150764
-0.150922
-0.151061
-0.151181
-0.151282
-0.151362
-0.15142
-0.151457
-0.15147
-0.15146
-0.151425
-0.151366
-0.15128
-0.151169
-0.151032
-0.150868
-0.150677
-0.15046
-0.150216
-0.149947
-0.149651
-0.149331
-0.148986
-0.148618
-0.142619
-0.142714
-0.142946
-0.143258
-0.143609
-0.143982
-0.144366
-0.144754
-0.14514
-0.145518
-0.145886
-0.146241
-0.146583
-0.146909
-0.147219
-0.147514
-0.147791
-0.148051
-0.148294
-0.148519
-0.148726
-0.148915
-0.149085
-0.149235
-0.149367
-0.149478
-0.149569
-0.149639
-0.149687
-0.149714
-0.149718
-0.149699
-0.149658
-0.149592
-0.149502
-0.149388
-0.14925
-0.149087
-0.148899
-0.148686
-0.148448
-0.148187
-0.1479
-0.147591
-0.147258
-0.146902
-0.146524
-0.146125
-0.145706
-0.145268
-0.142179
-0.142292
-0.142562
-0.142917
-0.143301
-0.143693
-0.144088
-0.144483
-0.144869
-0.145241
-0.145596
-0.145934
-0.146254
-0.146554
-0.146834
-0.147094
-0.147334
-0.147553
-0.14775
-0.147927
-0.148083
-0.148217
-0.148329
-0.148419
-0.148486
-0.148531
-0.148553
-0.148552
-0.148527
-0.148479
-0.148407
-0.148311
-0.14819
-0.148045
-0.147876
-0.147683
-0.147466
-0.147224
-0.146959
-0.146671
-0.146359
-0.146025
-0.145669
-0.145292
-0.144894
-0.144477
-0.14404
-0.143586
-0.143114
-0.142627
-0.141638
-0.141783
-0.142126
-0.142558
-0.142995
-0.143418
-0.143835
-0.144245
-0.144639
-0.145011
-0.14536
-0.145687
-0.145991
-0.146272
-0.146529
-0.146763
-0.146973
-0.14716
-0.147322
-0.147462
-0.147577
-0.147668
-0.147736
-0.147779
-0.147797
-0.147792
-0.147762
-0.147707
-0.147627
-0.147523
-0.147393
-0.14724
-0.147061
-0.146858
-0.146631
-0.14638
-0.146106
-0.145808
-0.145488
-0.145145
-0.144781
-0.144397
-0.143992
-0.143567
-0.143125
-0.142664
-0.142187
-0.141694
-0.141186
-0.140666
-0.141012
-0.141208
-0.141668
-0.142211
-0.142714
-0.143171
-0.143614
-0.144047
-0.144453
-0.144828
-0.145174
-0.145494
-0.145787
-0.146053
-0.146293
-0.146506
-0.146694
-0.146855
-0.146991
-0.147101
-0.147185
-0.147243
-0.147276
-0.147283
-0.147265
-0.14722
-0.14715
-0.147054
-0.146933
-0.146787
-0.146615
-0.146418
-0.146197
-0.145951
-0.145681
-0.145388
-0.145072
-0.144733
-0.144373
-0.143991
-0.14359
-0.143168
-0.142728
-0.142271
-0.141796
-0.141305
-0.140799
-0.14028
-0.139747
-0.139203
-0.140306
-0.140581
-0.141213
-0.141903
-0.142472
-0.142958
-0.143431
-0.14389
-0.144309
-0.144687
-0.145032
-0.145348
-0.145633
-0.145888
-0.146114
-0.146311
-0.146481
-0.146623
-0.146737
-0.146825
-0.146885
-0.146918
-0.146924
-0.146903
-0.146856
-0.146782
-0.146681
-0.146555
-0.146402
-0.146224
-0.14602
-0.145791
-0.145537
-0.145259
-0.144957
-0.144633
-0.144286
-0.143917
-0.143527
-0.143117
-0.142688
-0.14224
-0.141774
-0.141292
-0.140794
-0.140282
-0.139755
-0.139216
-0.138666
-0.138105
-0.13952
-0.139913
-0.140792
-0.141657
-0.142276
-0.142779
-0.143285
-0.143772
-0.144203
-0.144582
-0.144927
-0.14524
-0.145519
-0.145765
-0.145981
-0.146166
-0.146322
-0.146448
-0.146546
-0.146616
-0.146657
-0.14667
-0.146656
-0.146614
-0.146544
-0.146448
-0.146324
-0.146174
-0.145997
-0.145794
-0.145566
-0.145312
-0.145034
-0.144732
-0.144407
-0.144059
-0.143689
-0.143297
-0.142886
-0.142454
-0.142004
-0.141537
-0.141052
-0.140552
-0.140037
-0.139509
-0.138967
-0.138414
-0.137851
-0.137278
-0.138647
-0.139217
-0.140432
-0.141486
-0.142124
-0.142633
-0.143175
-0.14369
-0.144127
-0.144507
-0.144852
-0.145163
-0.145437
-0.145677
-0.145883
-0.146059
-0.146204
-0.146318
-0.146403
-0.146459
-0.146486
-0.146484
-0.146453
-0.146395
-0.146308
-0.146194
-0.146052
-0.145884
-0.145689
-0.145468
-0.145221
-0.144949
-0.144652
-0.144332
-0.143989
-0.143623
-0.143235
-0.142827
-0.142399
-0.141951
-0.141486
-0.141004
-0.140505
-0.139992
-0.139464
-0.138924
-0.138371
-0.137808
-0.137234
-0.136653
-0.137682
-0.13851
-0.140163
-0.141395
-0.142007
-0.142515
-0.143099
-0.143637
-0.144076
-0.144456
-0.144801
-0.14511
-0.14538
-0.145614
-0.145814
-0.145981
-0.146118
-0.146223
-0.146298
-0.146343
-0.146358
-0.146344
-0.146301
-0.14623
-0.14613
-0.146002
-0.145847
-0.145665
-0.145455
-0.14522
-0.144959
-0.144673
-0.144362
-0.144028
-0.143671
-0.143291
-0.142891
-0.142469
-0.142029
-0.141569
-0.141092
-0.140599
-0.14009
-0.139566
-0.139029
-0.13848
-0.137919
-0.137348
-0.136767
-0.136179
-0.136617
-0.137816
-0.140008
-0.141379
-0.141915
-0.142422
-0.143053
-0.143608
-0.144044
-0.144422
-0.144769
-0.145076
-0.145342
-0.145571
-0.145765
-0.145927
-0.146056
-0.146154
-0.14622
-0.146257
-0.146263
-0.14624
-0.146187
-0.146106
-0.145996
-0.145858
-0.145692
-0.145499
-0.145279
-0.145032
-0.144761
-0.144463
-0.144142
-0.143797
-0.143429
-0.14304
-0.142629
-0.142198
-0.141748
-0.141279
-0.140793
-0.140291
-0.139774
-0.139243
-0.138699
-0.138142
-0.137575
-0.136998
-0.136412
-0.135818
-0.135451
-0.137163
-0.139983
-0.141422
-0.141838
-0.142353
-0.143032
-0.143595
-0.144024
-0.144402
-0.14475
-0.145055
-0.145318
-0.145542
-0.145732
-0.145889
-0.146012
-0.146104
-0.146165
-0.146194
-0.146194
-0.146163
-0.146103
-0.146014
-0.145896
-0.14575
-0.145576
-0.145374
-0.145146
-0.144891
-0.14461
-0.144305
-0.143975
-0.143622
-0.143246
-0.142849
-0.14243
-0.141991
-0.141534
-0.141058
-0.140566
-0.140057
-0.139534
-0.138997
-0.138447
-0.137886
-0.137313
-0.136732
-0.136141
-0.135544
-0.134184
-0.136581
-0.140088
-0.141504
-0.14177
-0.142306
-0.14303
-0.143594
-0.144015
-0.144392
-0.14474
-0.145044
-0.145303
-0.145524
-0.145711
-0.145863
-0.145983
-0.14607
-0.146125
-0.146149
-0.146143
-0.146107
-0.146041
-0.145946
-0.145821
-0.145669
-0.145488
-0.14528
-0.145045
-0.144784
-0.144497
-0.144185
-0.143849
-0.143489
-0.143107
-0.142703
-0.142279
-0.141834
-0.141371
-0.14089
-0.140392
-0.139879
-0.139351
-0.138809
-0.138255
-0.13769
-0.137114
-0.136529
-0.135935
-0.135335
-0.132824
-0.136098
-0.140314
-0.141606
-0.141707
-0.142278
-0.143042
-0.143599
-0.144012
-0.14439
-0.144738
-0.14504
-0.145296
-0.145515
-0.145698
-0.145847
-0.145963
-0.146046
-0.146097
-0.146118
-0.146107
-0.146066
-0.145995
-0.145895
-0.145766
-0.145609
-0.145423
-0.14521
-0.14497
-0.144703
-0.144411
-0.144094
-0.143753
-0.143389
-0.143002
-0.142593
-0.142164
-0.141715
-0.141248
-0.140762
-0.14026
-0.139743
-0.139211
-0.138666
-0.138109
-0.13754
-0.136961
-0.136373
-0.135777
-0.135175
-0.131385
-0.135736
-0.140637
-0.141709
-0.141649
-0.142269
-0.143062
-0.143607
-0.144014
-0.144393
-0.144741
-0.14504
-0.145294
-0.14551
-0.145691
-0.145837
-0.14595
-0.14603
-0.146079
-0.146095
-0.146081
-0.146037
-0.145962
-0.145858
-0.145726
-0.145564
-0.145375
-0.145158
-0.144914
-0.144643
-0.144347
-0.144026
-0.143681
-0.143313
-0.142922
-0.14251
-0.142077
-0.141624
-0.141153
-0.140665
-0.14016
-0.13964
-0.139105
-0.138557
-0.137997
-0.137426
-0.136845
-0.136255
-0.135657
-0.135052
-0.129887
-0.135509
-0.141032
-0.141801
-0.141599
-0.142273
-0.143086
-0.143618
-0.144019
-0.1444
-0.144747
-0.145044
-0.145296
-0.14551
-0.145689
-0.145833
-0.145943
-0.146021
-0.146066
-0.14608
-0.146063
-0.146016
-0.145939
-0.145832
-0.145696
-0.145531
-0.145339
-0.145119
-0.144871
-0.144598
-0.144299
-0.143975
-0.143626
-0.143255
-0.142861
-0.142446
-0.14201
-0.141555
-0.141082
-0.140591
-0.140083
-0.13956
-0.139023
-0.138473
-0.137911
-0.137338
-0.136755
-0.136164
-0.135564
-0.134958
-0.128351
-0.135421
-0.14147
-0.141877
-0.141557
-0.142288
-0.14311
-0.143629
-0.144027
-0.144408
-0.144755
-0.14505
-0.1453
-0.145512
-0.145689
-0.145831
-0.145939
-0.146015
-0.146059
-0.146071
-0.146051
-0.146001
-0.145922
-0.145813
-0.145674
-0.145507
-0.145312
-0.14509
-0.14484
-0.144564
-0.144262
-0.143936
-0.143585
-0.143212
-0.142815
-0.142398
-0.14196
-0.141503
-0.141027
-0.140534
-0.140024
-0.1395
-0.138961
-0.13841
-0.137846
-0.137271
-0.136687
-0.136094
-0.135493
-0.134886
-0.126804
-0.135465
-0.141922
-0.141934
-0.141526
-0.142309
-0.143134
-0.14364
-0.144037
-0.144418
-0.144763
-0.145056
-0.145305
-0.145516
-0.145691
-0.145832
-0.145938
-0.146012
-0.146054
-0.146064
-0.146043
-0.145992
-0.14591
-0.145799
-0.145659
-0.14549
-0.145293
-0.145068
-0.144817
-0.144539
-0.144235
-0.143907
-0.143554
-0.143179
-0.142781
-0.142361
-0.141922
-0.141463
-0.140985
-0.140491
-0.13998
-0.139454
-0.138913
-0.13836
-0.137795
-0.13722
-0.136634
-0.13604
-0.135438
-0.134831
-0.125268
-0.135629
-0.142368
-0.141974
-0.141505
-0.142334
-0.143156
-0.143651
-0.144047
-0.144428
-0.144772
-0.145064
-0.145311
-0.145521
-0.145695
-0.145834
-0.145939
-0.146012
-0.146053
-0.146061
-0.146038
-0.145985
-0.145902
-0.14579
-0.145648
-0.145478
-0.145279
-0.145053
-0.1448
-0.14452
-0.144215
-0.143885
-0.143531
-0.143154
-0.142755
-0.142334
-0.141893
-0.141432
-0.140954
-0.140458
-0.139945
-0.139418
-0.138877
-0.138323
-0.137757
-0.13718
-0.136594
-0.135999
-0.135396
-0.134788
-0.123767
-0.135895
-0.142791
-0.142
-0.141493
-0.14236
-0.143175
-0.143661
-0.144057
-0.144439
-0.144781
-0.145071
-0.145317
-0.145526
-0.145699
-0.145837
-0.145941
-0.146013
-0.146052
-0.14606
-0.146036
-0.145981
-0.145897
-0.145783
-0.14564
-0.145469
-0.145269
-0.145042
-0.144787
-0.144506
-0.1442
-0.143869
-0.143514
-0.143135
-0.142735
-0.142313
-0.141871
-0.141409
-0.140929
-0.140432
-0.139919
-0.139391
-0.138849
-0.138294
-0.137727
-0.13715
-0.136563
-0.135967
-0.135364
-0.134755
-0.12232
-0.136242
-0.14318
-0.142016
-0.141489
-0.142385
-0.143191
-0.143671
-0.144067
-0.144449
-0.14479
-0.145079
-0.145324
-0.145532
-0.145703
-0.14584
-0.145944
-0.146014
-0.146053
-0.14606
-0.146035
-0.145979
-0.145894
-0.145779
-0.145635
-0.145463
-0.145262
-0.145034
-0.144778
-0.144496
-0.144188
-0.143856
-0.1435
-0.143121
-0.14272
-0.142297
-0.141854
-0.141392
-0.140911
-0.140413