/*--------------------------------*- C++ -*----------------------------------*\
| =========                 |                                                 |
| \\      /  F ield         | OpenFOAM: The Open Source CFD Toolbox           |
|  \\    /   O peration     | Version:  2412                                  |
|   \\  /    A nd           | Website:  www.openfoam.com                      |
|    \\/     M anipulation  |                                                 |
\*---------------------------------------------------------------------------*/
FoamFile
{
    version     2.0;
    format      ascii;
    arch        "LSB;label=32;scalar=64";
    class       volScalarField;
    location    "1500";
    object      k;
}
// * * * * * * * * * * * * * * * * * * * * * * * * * * * * * * * * * * * * * //

dimensions      [0 2 -2 0 0 0 0];

internalField   nonuniform List<scalar> 
18000
(
0.339377
0.113246
0.0667712
0.0524672
0.0662058
0.0825352
0.0925363
0.0989794
0.10337
0.106533
0.108905
0.110685
0.112175
0.113443
0.114633
0.115693
0.116752
0.117719
0.118727
0.119662
0.120641
0.121559
0.12255
0.123502
0.124515
0.125498
0.126548
0.127559
0.128648
0.129724
0.130885
0.132049
0.133316
0.13459
0.135981
0.137388
0.138949
0.140548
0.142344
0.144195
0.146306
0.148513
0.151049
0.153855
0.156994
0.161218
0.16496
0.174698
0.177968
0.182194
0.0681038
0.022404
0.0147715
0.0210543
0.0690227
0.117391
0.143201
0.160647
0.172712
0.181153
0.187305
0.191844
0.195659
0.198858
0.201826
0.20435
0.20689
0.209098
0.2114
0.213391
0.215532
0.217423
0.219501
0.221349
0.223374
0.225213
0.227227
0.229016
0.231001
0.23282
0.234862
0.236779
0.238941
0.240951
0.243241
0.245378
0.247874
0.250201
0.252987
0.255548
0.258734
0.261566
0.265291
0.268524
0.273177
0.277232
0.28362
0.290572
0.296674
0.392851
0.0442108
0.0280148
0.036708
0.11165
0.468471
0.796469
0.962099
1.07166
1.14612
1.19742
1.23439
1.26145
1.28409
1.30298
1.32041
1.3351
1.34986
1.36258
1.3758
1.3871
1.39927
1.4099
1.42159
1.43184
1.4431
1.45319
1.46426
1.47394
1.48472
1.49443
1.5054
1.51554
1.52703
1.53752
1.54955
1.56055
1.57351
1.5853
1.59959
1.61232
1.62845
1.64215
1.66071
1.67574
1.69867
1.71624
1.74785
1.77283
1.80419
2.15568
0.0289891
0.0426066
0.0973914
0.356045
1.32449
2.0238
2.34216
2.54368
2.67553
2.76395
2.82645
2.87161
2.90929
2.94045
2.96905
2.99284
3.01672
3.03695
3.05797
3.07554
3.09461
3.1109
3.12892
3.1443
3.16136
3.17624
3.1927
3.20662
3.22233
3.23606
3.25182
3.26596
3.2822
3.29649
3.3132
3.32789
3.34561
3.36099
3.38021
3.39634
3.41766
3.43421
3.45836
3.47531
3.50509
3.5227
3.5653
3.57934
3.62563
3.86497
0.0122426
0.0415388
0.151986
0.609915
1.99775
2.82525
3.2138
3.46058
3.61816
3.72222
3.79496
3.84719
3.8909
3.9269
3.95982
3.98694
4.01426
4.03701
4.06073
4.08016
4.10146
4.11927
4.13917
4.15569
4.17427
4.19001
4.20763
4.22201
4.23859
4.25263
4.26911
4.28342
4.30015
4.31431
4.33128
4.34559
4.36341
4.37811
4.3972
4.41221
4.43306
4.44774
4.47105
4.48524
4.51382
4.52652
4.56851
4.56802
4.61382
4.7282
0.00370477
0.0277603
0.165042
0.772654
2.33871
3.15708
3.61718
3.91814
4.10566
4.22801
4.31244
4.37249
4.42251
4.46324
4.50007
4.53008
4.56023
4.58485
4.61047
4.631
4.65371
4.67221
4.69307
4.70983
4.72898
4.74459
4.76238
4.77632
4.79285
4.80629
4.82253
4.83601
4.85215
4.86514
4.88127
4.89416
4.91089
4.92383
4.94151
4.95431
4.97326
4.98505
5.00588
5.01681
5.04172
5.04961
5.08599
5.07725
5.11902
5.15943
0.0013202
0.0115092
0.115335
0.612882
2.0941
3.05509
3.64728
4.04084
4.28327
4.44129
4.54902
4.62498
4.68703
4.73646
4.78005
4.81524
4.84997
4.87778
4.90634
4.92886
4.9537
4.97344
4.99571
5.01305
5.03307
5.04878
5.06704
5.08083
5.09759
5.11064
5.12682
5.13957
5.15523
5.16714
5.18254
5.19412
5.20983
5.22112
5.23745
5.2482
5.26522
5.27457
5.29276
5.30116
5.32211
5.32696
5.35607
5.34488
5.37722
5.38295
0.00067441
0.00335411
0.0416209
0.303619
1.42594
2.552
3.31684
3.8565
4.19823
4.42629
4.58078
4.68934
4.77523
4.84161
4.89809
4.94329
4.98636
5.02027
5.0542
5.08075
5.10951
5.13194
5.15683
5.17579
5.19765
5.21426
5.23369
5.248
5.26563
5.27881
5.29542
5.30784
5.32344
5.33472
5.34983
5.36055
5.37562
5.38574
5.40105
5.41027
5.42562
5.43335
5.44904
5.45579
5.47317
5.47685
5.49925
5.49094
5.50898
5.50511
0.000501003
0.000966169
0.00969316
0.0868887
0.579459
1.72719
2.62647
3.33723
3.82762
4.17413
4.41219
4.58157
4.71154
4.80928
4.88956
4.95327
5.01107
5.05611
5.0996
5.13373
5.16939
5.19691
5.22649
5.24886
5.27421
5.29335
5.31559
5.3316
5.35109
5.36522
5.38301
5.39578
5.41213
5.42353
5.43905
5.44957
5.46461
5.47417
5.48896
5.49728
5.51151
5.51834
5.53221
5.53811
5.55253
5.55601
5.57261
5.56738
5.57295
5.56508
0.000468784
0.000441531
0.0018279
0.0154158
0.137636
0.646034
1.67438
2.48589
3.13282
3.63499
3.99916
4.26819
4.47216
4.62443
4.74682
4.84331
4.92663
4.9915
5.05177
5.09949
5.14697
5.18356
5.22128
5.25009
5.28162
5.30553
5.33258
5.35219
5.37517
5.39161
5.41187
5.42608
5.44403
5.45632
5.47294
5.4839
5.49945
5.50904
5.52374
5.53183
5.54545
5.55198
5.56484
5.57028
5.5828
5.5862
5.59899
5.59625
5.59425
5.58222
0.000493172
0.000277017
0.000437697
0.00202576
0.0189527
0.129609
0.545609
1.41294
2.15126
2.77465
3.28246
3.68326
3.99567
4.23455
4.42626
4.57757
4.70383
4.80325
4.89248
4.96376
5.03107
5.08335
5.13507
5.17537
5.21754
5.24998
5.28506
5.31083
5.33961
5.36041
5.38502
5.40255
5.4241
5.43894
5.45814
5.47084
5.48807
5.49879
5.51438
5.5231
5.53683
5.54384
5.55635
5.5619
5.57347
5.57704
5.58741
5.58652
5.58144
5.56395
0.000506979
0.000245748
0.00021614
0.00056288
0.00273818
0.0108598
0.0959542
0.352008
0.96691
1.69263
2.27738
2.78208
3.21583
3.56631
3.85513
4.08874
4.28253
4.43862
4.57534
4.68571
4.78569
4.86483
4.94047
5.00071
5.06077
5.10779
5.1562
5.19278
5.23174
5.2608
5.2934
5.31734
5.34516
5.36484
5.38869
5.40492
5.42548
5.43883
5.45673
5.46772
5.48316
5.49206
5.50548
5.51245
5.52408
5.52882
5.53811
5.53911
5.53303
5.51272
0.000510969
0.000245062
0.000199084
7.08251e-05
0.000307315
0.00194303
0.00902445
0.0319467
0.210027
0.509079
1.06389
1.66647
2.1647
2.58971
2.97146
3.30342
3.58548
3.82014
4.02591
4.19588
4.34693
4.46985
4.58448
4.67756
4.76674
4.83801
4.90829
4.96331
5.01971
5.06343
5.10992
5.1453
5.18407
5.21261
5.24491
5.26793
5.29499
5.31371
5.33664
5.35212
5.37144
5.38409
5.40013
5.41032
5.42304
5.43098
5.43926
5.44397
5.43945
5.42064
0.0005128
0.000251736
0.000178902
0.000119759
0.000121141
0.000265241
0.000778609
0.000109402
0.0266269
0.0603076
0.214286
0.480705
0.901185
1.39636
1.85359
2.24149
2.58299
2.88736
3.17074
3.41566
3.63465
3.81794
3.98815
4.12989
4.26333
4.37269
4.47765
4.56273
4.64744
4.71532
4.7845
4.83894
4.89579
4.93944
4.98622
5.02131
5.06011
5.08874
5.12127
5.14496
5.17205
5.19154
5.21346
5.22946
5.24595
5.25905
5.26886
5.27797
5.27527
5.26095
0.000514844
0.000258361
0.00016846
0.000129955
0.000100898
0.000100942
0.000137491
1.58105e-05
0.00127523
0.00497859
0.0123325
0.0571611
0.134401
0.305256
0.59757
0.951767
1.34116
1.72655
2.06106
2.35011
2.61646
2.84942
3.07849
3.27864
3.46901
3.62908
3.78167
3.90872
4.03379
4.13702
4.24012
4.32387
4.40882
4.4765
4.54659
4.60156
4.65998
4.70519
4.7541
4.79141
4.83206
4.86272
4.89567
4.92074
4.94593
4.9661
4.98236
4.99695
4.99872
4.98971
0.000518182
0.00026116
0.000167833
0.000126702
0.000101011
9.09554e-05
8.0334e-05
8.52768e-05
0.000106278
0.00025737
0.000753913
0.00183207
0.010187
0.0219099
0.0637664
0.134524
0.267273
0.478954
0.740204
1.03309
1.33586
1.64522
1.92487
2.16248
2.38696
2.58096
2.77101
2.93466
3.1031
3.24804
3.39416
3.51618
3.63874
3.73896
3.84139
3.92406
4.01053
4.07947
4.15284
4.2102
4.27199
4.31925
4.3706
4.4088
4.45009
4.47951
4.5102
4.52925
4.54457
4.53913
0.000522005
0.000263362
0.000168847
0.000125089
9.98377e-05
8.64987e-05
7.55914e-05
7.1185e-05
6.69555e-05
6.74878e-05
0.000100065
4.52709e-05
0.000588367
0.000961626
0.00374986
0.00704619
0.0185081
0.037219
0.0786258
0.14691
0.256674
0.403883
0.597126
0.801874
1.03058
1.25713
1.4903
1.71298
1.92303
2.0986
2.27158
2.41683
2.56459
2.68801
2.81713
2.92362
3.03829
3.13301
3.23595
3.31781
3.40753
3.47628
3.55318
3.60838
3.67275
3.71419
3.76611
3.79132
3.82654
3.82594
0.000525955
0.00026583
0.000170255
0.000124923
9.92562e-05
8.4068e-05
7.34234e-05
6.70101e-05
6.17766e-05
5.89427e-05
5.70192e-05
5.60939e-05
6.70277e-05
7.65285e-05
0.000216436
0.000312994
0.0008504
0.00143879
0.00343019
0.00639628
0.013695
0.0251304
0.0514645
0.0812763
0.144095
0.206201
0.313203
0.421302
0.569725
0.707302
0.874148
1.02453
1.19634
1.34806
1.51426
1.65816
1.81009
1.93079
2.05716
2.15557
2.26342
2.34502
2.43844
2.50434
2.58437
2.63511
2.70164
2.73516
2.78263
2.79181
0.00052992
0.000268669
0.000171814
0.000125599
9.9016e-05
8.32391e-05
7.17746e-05
6.49182e-05
5.87588e-05
5.56104e-05
5.19162e-05
5.05206e-05
4.85613e-05
4.74403e-05
5.21773e-05
5.44234e-05
7.46613e-05
8.96421e-05
0.0001566
0.00022816
0.000458544
0.000738638
0.00160164
0.00261375
0.00551476
0.00856871
0.0164568
0.0242115
0.0431353
0.0591135
0.0961817
0.123475
0.184031
0.224899
0.307469
0.367491
0.467437
0.542726
0.649483
0.730508
0.837514
0.917473
1.0194
1.09483
1.18849
1.2547
1.33515
1.3866
1.44482
1.47197
0.000533938
0.000271599
0.000173774
0.000126513
9.95727e-05
8.27858e-05
7.13451e-05
6.33901e-05
5.74521e-05
5.31047e-05
4.97165e-05
4.71538e-05
4.51645e-05
4.35938e-05
4.24805e-05
4.16158e-05
4.14114e-05
4.13548e-05
4.30837e-05
4.46276e-05
5.08482e-05
5.62395e-05
7.51535e-05
9.60696e-05
0.000154416
0.000220735
0.000399457
0.000575336
0.00106932
0.00149184
0.00270488
0.00363123
0.00625519
0.00814467
0.0131086
0.016633
0.0254552
0.0316607
0.0462946
0.0559967
0.0768746
0.0914513
0.117147
0.137955
0.167148
0.192518
0.223143
0.249993
0.277705
0.300487
0.000537973
0.000274674
0.000175882
0.000127806
0.000100346
8.30184e-05
7.12128e-05
6.28455e-05
5.6584e-05
5.18914e-05
4.81713e-05
4.53162e-05
4.29557e-05
4.11443e-05
3.95932e-05
3.843e-05
3.7404e-05
3.66745e-05
3.60242e-05
3.56263e-05
3.52924e-05
3.51929e-05
3.53497e-05
3.55938e-05
3.65772e-05
3.76343e-05
4.02562e-05
4.34658e-05
5.06688e-05
5.77664e-05
7.54952e-05
9.04042e-05
0.00012816
0.000157667
0.000226745
0.000279213
0.000415374
0.000514246
0.00077954
0.000962658
0.00143252
0.00177819
0.00245587
0.00316026
0.00411602
0.0052434
0.0065439
0.0080937
0.00968853
0.0114855
0.000542019
0.000277848
0.000178125
0.000129327
0.000101368
8.35879e-05
7.14716e-05
6.27456e-05
5.627e-05
5.12543e-05
4.73623e-05
4.41978e-05
4.16899e-05
3.95717e-05
3.78861e-05
3.64132e-05
3.52543e-05
3.42059e-05
3.34032e-05
3.26481e-05
3.20971e-05
3.1553e-05
3.11864e-05
3.0802e-05
3.05764e-05
3.03209e-05
3.02099e-05
3.00737e-05
3.0075e-05
3.00961e-05
3.02341e-05
3.03704e-05
3.07549e-05
3.10644e-05
3.17285e-05
3.23571e-05
3.34409e-05
3.48678e-05
3.65848e-05
3.94505e-05
4.22183e-05
4.75314e-05
5.19752e-05
6.10221e-05
6.80264e-05
8.17468e-05
9.34722e-05
0.000112302
0.000129493
0.00015309
0.000546074
0.000281099
0.000180473
0.000131017
0.000102569
8.44156e-05
7.19868e-05
6.30096e-05
5.62852e-05
5.10871e-05
4.69771e-05
4.36621e-05
4.09508e-05
3.87024e-05
3.68206e-05
3.52308e-05
3.38781e-05
3.27213e-05
3.1725e-05
3.08669e-05
3.0121e-05
2.94768e-05
2.89124e-05
2.84257e-05
2.79961e-05
2.76278e-05
2.73006e-05
2.70225e-05
2.6774e-05
2.65656e-05
2.63786e-05
2.62242e-05
2.60851e-05
2.59731e-05
2.5871e-05
2.57925e-05
2.57198e-05
2.56681e-05
2.56201e-05
2.55898e-05
2.55651e-05
2.55528e-05
2.55536e-05
2.55626e-05
2.55772e-05
2.56141e-05
2.56414e-05
2.57011e-05
2.57345e-05
2.58016e-05
0.000550135
0.000284409
0.00018291
0.000132827
0.000103917
8.54209e-05
7.27072e-05
6.35067e-05
5.65788e-05
5.12051e-05
4.69361e-05
4.34785e-05
4.06301e-05
3.82554e-05
3.62508e-05
3.45448e-05
3.30791e-05
3.18129e-05
3.07106e-05
2.97476e-05
2.89008e-05
2.81546e-05
2.74937e-05
2.69072e-05
2.63847e-05
2.59186e-05
2.55014e-05
2.51275e-05
2.47916e-05
2.44894e-05
2.42169e-05
2.39708e-05
2.37481e-05
2.35462e-05
2.33626e-05
2.31954e-05
2.30422e-05
2.29019e-05
2.2772e-05
2.2652e-05
2.25391e-05
2.24332e-05
2.23314e-05
2.22333e-05
2.21361e-05
2.20384e-05
2.19374e-05
2.18313e-05
2.17185e-05
2.15977e-05
0.000554201
0.000287768
0.000185423
0.00013473
0.000105382
8.65572e-05
7.35862e-05
6.41747e-05
5.70703e-05
5.15447e-05
4.71375e-05
4.35559e-05
4.05961e-05
3.81176e-05
3.60157e-05
3.42175e-05
3.26644e-05
3.13143e-05
3.01317e-05
2.90908e-05
2.81692e-05
2.73499e-05
2.66182e-05
2.59626e-05
2.53728e-05
2.48408e-05
2.43593e-05
2.39225e-05
2.35251e-05
2.31627e-05
2.28315e-05
2.2528e-05
2.22492e-05
2.19927e-05
2.17558e-05
2.15368e-05
2.13334e-05
2.11444e-05
2.09675e-05
2.08023e-05
2.06462e-05
2.04991e-05
2.03585e-05
2.02243e-05
2.0094e-05
1.99673e-05
1.98418e-05
1.97169e-05
1.95909e-05
1.94641e-05
0.000558273
0.000291171
0.000187998
0.00013671
0.000106939
8.7798e-05
7.45843e-05
6.49754e-05
5.77095e-05
5.20434e-05
4.75173e-05
4.38273e-05
4.07706e-05
3.82014e-05
3.60195e-05
3.41446e-05
3.25216e-05
3.1103e-05
2.98577e-05
2.87549e-05
2.7776e-05
2.68998e-05
2.61153e-05
2.54067e-05
2.47677e-05
2.41861e-05
2.36586e-05
2.31751e-05
2.27344e-05
2.2328e-05
2.1956e-05
2.16109e-05
2.12939e-05
2.09981e-05
2.07255e-05
2.04696e-05
2.02328e-05
2.00093e-05
1.98017e-05
1.96044e-05
1.94202e-05
1.92438e-05
1.90781e-05
1.8918e-05
1.87662e-05
1.86178e-05
1.84755e-05
1.83347e-05
1.81983e-05
1.80627e-05
0.000562348
0.000294616
0.000190628
0.000138755
0.000108569
8.9123e-05
7.56753e-05
6.58797e-05
5.84611e-05
5.26659e-05
4.8029e-05
4.42416e-05
4.10991e-05
3.84522e-05
3.61988e-05
3.42576e-05
3.25741e-05
3.10991e-05
2.98012e-05
2.86483e-05
2.76224e-05
2.6701e-05
2.58737e-05
2.51239e-05
2.44457e-05
2.38262e-05
2.32625e-05
2.2744e-05
2.22696e-05
2.18307e-05
2.14274e-05
2.1052e-05
2.07058e-05
2.03818e-05
2.00819e-05
1.97998e-05
1.95379e-05
1.929e-05
1.90593e-05
1.88397e-05
1.86345e-05
1.8438e-05
1.82536e-05
1.80758e-05
1.7908e-05
1.77447e-05
1.75897e-05
1.74378e-05
1.72928e-05
1.71502e-05
0.000566428
0.0002981
0.000193308
0.000140857
0.000110263
9.05172e-05
7.68418e-05
6.6866e-05
5.93014e-05
5.33836e-05
4.86433e-05
4.47652e-05
4.15439e-05
3.88256e-05
3.65093e-05
3.45097e-05
3.27736e-05
3.12483e-05
2.9905e-05
2.87085e-05
2.76432e-05
2.66833e-05
2.58211e-05
2.50367e-05
2.43271e-05
2.3676e-05
2.30838e-05
2.25364e-05
2.20361e-05
2.15706e-05
2.11435e-05
2.07435e-05
2.03754e-05
2.00287e-05
1.97087e-05
1.94056e-05
1.91252e-05
1.8858e-05
1.86105e-05
1.83731e-05
1.81527e-05
1.794e-05
1.7742e-05
1.75498e-05
1.73703e-05
1.71949e-05
1.70305e-05
1.68689e-05
1.67172e-05
1.65677e-05
0.000570513
0.000301623
0.000196034
0.00014301
0.000112011
9.19705e-05
7.80702e-05
6.79199e-05
6.02121e-05
5.41782e-05
4.93371e-05
4.53751e-05
4.20777e-05
3.92951e-05
3.69182e-05
3.48673e-05
3.3081e-05
3.15135e-05
3.01276e-05
2.88953e-05
2.77927e-05
2.68017e-05
2.59064e-05
2.50948e-05
2.43556e-05
2.36805e-05
2.30615e-05
2.24926e-05
2.19679e-05
2.14832e-05
2.10337e-05
2.06166e-05
2.0228e-05
1.98658e-05
1.9527e-05
1.92098e-05
1.8912e-05
1.86322e-05
1.83685e-05
1.81198e-05
1.78845e-05
1.76619e-05
1.74505e-05
1.72497e-05
1.70585e-05
1.6876e-05
1.67017e-05
1.65348e-05
1.6375e-05
1.62217e-05
0.000574601
0.000305181
0.000198805
0.00014521
0.000113808
9.34747e-05
7.93524e-05
6.90294e-05
6.1182e-05
5.50341e-05
5.00961e-05
4.60526e-05
4.26831e-05
3.98387e-05
3.74054e-05
3.53055e-05
3.34734e-05
3.18659e-05
3.04416e-05
2.91757e-05
2.80403e-05
2.70206e-05
2.60968e-05
2.52602e-05
2.44957e-05
2.37986e-05
2.3157e-05
2.25686e-05
2.20235e-05
2.15213e-05
2.10533e-05
2.06203e-05
2.02149e-05
1.98384e-05
1.94843e-05
1.91543e-05
1.88427e-05
1.85514e-05
1.82753e-05
1.80165e-05
1.77703e-05
1.75389e-05
1.73177e-05
1.71093e-05
1.69094e-05
1.67205e-05
1.65388e-05
1.63668e-05
1.62009e-05
1.60435e-05
0.000578694
0.000308775
0.000201619
0.000147455
0.000115651
9.50244e-05
8.06819e-05
7.01867e-05
6.22022e-05
5.59409e-05
5.09092e-05
4.67848e-05
4.33467e-05
4.04413e-05
3.79553e-05
3.58072e-05
3.39331e-05
3.22862e-05
3.08275e-05
2.95286e-05
2.83642e-05
2.73164e-05
2.63678e-05
2.55068e-05
2.47208e-05
2.40023e-05
2.33419e-05
2.27344e-05
2.21727e-05
2.16533e-05
2.11705e-05
2.07222e-05
2.03034e-05
1.9913e-05
1.95469e-05
1.92043e-05
1.88819e-05
1.85793e-05
1.82934e-05
1.80243e-05
1.77693e-05
1.75286e-05
1.72996e-05
1.70831e-05
1.68765e-05
1.66806e-05
1.64933e-05
1.63153e-05
1.61447e-05
1.59825e-05
0.000582792
0.000312404
0.000204475
0.000149742
0.000117536
9.66161e-05
8.20538e-05
7.13865e-05
6.32659e-05
5.68919e-05
5.17679e-05
4.75635e-05
4.40587e-05
4.1093e-05
3.85564e-05
3.63609e-05
3.4447e-05
3.27616e-05
3.12707e-05
2.99396e-05
2.87486e-05
2.76733e-05
2.67024e-05
2.58174e-05
2.50125e-05
2.4273e-05
2.35962e-05
2.297e-05
2.23941e-05
2.1858e-05
2.13627e-05
2.08991e-05
2.04694e-05
2.0065e-05
1.9689e-05
1.93335e-05
1.90021e-05
1.86874e-05
1.83934e-05
1.8113e-05
1.78504e-05
1.75991e-05
1.73635e-05
1.71371e-05
1.69246e-05
1.67197e-05
1.65271e-05
1.63409e-05
1.61657e-05
1.59959e-05
0.000586888
0.000316053
0.000207353
0.000152047
0.000119432
9.82145e-05
8.34258e-05
7.25828e-05
6.43202e-05
5.78309e-05
5.26091e-05
4.8323e-05
4.47461e-05
4.17192e-05
3.91268e-05
3.68835e-05
3.49246e-05
3.32006e-05
3.16725e-05
3.03095e-05
2.90869e-05
2.79847e-05
2.69863e-05
2.60782e-05
2.5249e-05
2.44893e-05
2.37908e-05
2.31467e-05
2.25511e-05
2.19989e-05
2.14858e-05
2.10078e-05
2.05617e-05
2.01445e-05
1.97535e-05
1.93864e-05
1.90413e-05
1.87161e-05
1.84094e-05
1.81196e-05
1.78454e-05
1.75855e-05
1.73391e-05
1.71049e-05
1.68822e-05
1.667e-05
1.6468e-05
1.6275e-05
1.60909e-05
1.59147e-05
0.000589993
0.000318827
0.000209537
0.000153789
0.000120855
9.94026e-05
8.44348e-05
7.34505e-05
6.50736e-05
5.84895e-05
5.31877e-05
4.88327e-05
4.5196e-05
4.21161e-05
3.94767e-05
3.71909e-05
3.51938e-05
3.34347e-05
3.18746e-05
3.04817e-05
2.92318e-05
2.81038e-05
2.70818e-05
2.61512e-05
2.53013e-05
2.45217e-05
2.3805e-05
2.31433e-05
2.25316e-05
2.19637e-05
2.14361e-05
2.09441e-05
2.0485e-05
2.0055e-05
1.96524e-05
1.92738e-05
1.89182e-05
1.85827e-05
1.82668e-05
1.79678e-05
1.76854e-05
1.74175e-05
1.7164e-05
1.69228e-05
1.66942e-05
1.64761e-05
1.6269e-05
1.60711e-05
1.58829e-05
1.57027e-05
0.000589989
0.000318816
0.000209519
0.000153766
0.00012083
9.93754e-05
8.44058e-05
7.34197e-05
6.5041e-05
5.8455e-05
5.31513e-05
4.87943e-05
4.51557e-05
4.20738e-05
3.94325e-05
3.71448e-05
3.51459e-05
3.33848e-05
3.1823e-05
3.04284e-05
2.91769e-05
2.80473e-05
2.70238e-05
2.60918e-05
2.52406e-05
2.44597e-05
2.37418e-05
2.3079e-05
2.24662e-05
2.18974e-05
2.13691e-05
2.08763e-05
2.04166e-05
1.99861e-05
1.95832e-05
1.92044e-05
1.88487e-05
1.85132e-05
1.81973e-05
1.78986e-05
1.76165e-05
1.73491e-05
1.70961e-05
1.68555e-05
1.66276e-05
1.64103e-05
1.62041e-05
1.60072e-05
1.58199e-05
1.56408e-05
0.000589989
0.000318812
0.000209511
0.000153755
0.000120818
9.93634e-05
8.4394e-05
7.34084e-05
6.50302e-05
5.84446e-05
5.31413e-05
4.87848e-05
4.51464e-05
4.20649e-05
3.94238e-05
3.71364e-05
3.51377e-05
3.33768e-05
3.18151e-05
3.04207e-05
2.91693e-05
2.80398e-05
2.70164e-05
2.60845e-05
2.52333e-05
2.44525e-05
2.37346e-05
2.30718e-05
2.24591e-05
2.18903e-05
2.13619e-05
2.08691e-05
2.04094e-05
1.99789e-05
1.95758e-05
1.9197e-05
1.88412e-05
1.85057e-05
1.81897e-05
1.78908e-05
1.76087e-05
1.73411e-05
1.7088e-05
1.68472e-05
1.66191e-05
1.64017e-05
1.61954e-05
1.59982e-05
1.58109e-05
1.56315e-05
0.000589988
0.000318809
0.000209505
0.000153747
0.000120809
9.93545e-05
8.43852e-05
7.33998e-05
6.50218e-05
5.84365e-05
5.31335e-05
4.87772e-05
4.51391e-05
4.20577e-05
3.94168e-05
3.71295e-05
3.51309e-05
3.33702e-05
3.18086e-05
3.04142e-05
2.91629e-05
2.80335e-05
2.701e-05
2.60781e-05
2.5227e-05
2.44461e-05
2.37282e-05
2.30654e-05
2.24526e-05
2.18838e-05
2.13554e-05
2.08625e-05
2.04027e-05
1.99721e-05
1.9569e-05
1.919e-05
1.88341e-05
1.84984e-05
1.81824e-05
1.78833e-05
1.76011e-05
1.73333e-05
1.70801e-05
1.68392e-05
1.66109e-05
1.63934e-05
1.61868e-05
1.59895e-05
1.5802e-05
1.56225e-05
0.000589988
0.000318807
0.000209501
0.000153742
0.000120803
9.9348e-05
8.43786e-05
7.33933e-05
6.50154e-05
5.84303e-05
5.31274e-05
4.87712e-05
4.51332e-05
4.20519e-05
3.94111e-05
3.71239e-05
3.51253e-05
3.33646e-05
3.1803e-05
3.04087e-05
2.91573e-05
2.80279e-05
2.70045e-05
2.60725e-05
2.52213e-05
2.44404e-05
2.37225e-05
2.30596e-05
2.24467e-05
2.18778e-05
2.13492e-05
2.08563e-05
2.03964e-05
1.99656e-05
1.95624e-05
1.91833e-05
1.88273e-05
1.84915e-05
1.81752e-05
1.78761e-05
1.75937e-05
1.73257e-05
1.70723e-05
1.68313e-05
1.66029e-05
1.63851e-05
1.61784e-05
1.5981e-05
1.57933e-05
1.56136e-05
0.000589988
0.000318806
0.000209498
0.000153739
0.000120799
9.93437e-05
8.43742e-05
7.33888e-05
6.5011e-05
5.84258e-05
5.3123e-05
4.87668e-05
4.51288e-05
4.20476e-05
3.94068e-05
3.71195e-05
3.51209e-05
3.33602e-05
3.17986e-05
3.04042e-05
2.91528e-05
2.80233e-05
2.69998e-05
2.60677e-05
2.52164e-05
2.44354e-05
2.37174e-05
2.30544e-05
2.24414e-05
2.18723e-05
2.13437e-05
2.08505e-05
2.03905e-05
1.99597e-05
1.95563e-05
1.9177e-05
1.88208e-05
1.84848e-05
1.81685e-05
1.78691e-05
1.75865e-05
1.73184e-05
1.70648e-05
1.68236e-05
1.65951e-05
1.63771e-05
1.61703e-05
1.59727e-05
1.57848e-05
1.5605e-05
0.000589988
0.000318805
0.000209497
0.000153737
0.000120797
9.93416e-05
8.4372e-05
7.33865e-05
6.50086e-05
5.84234e-05
5.31205e-05
4.87642e-05
4.51262e-05
4.20449e-05
3.9404e-05
3.71167e-05
3.5118e-05
3.33572e-05
3.17955e-05
3.0401e-05
2.91495e-05
2.80198e-05
2.69962e-05
2.6064e-05
2.52126e-05
2.44315e-05
2.37132e-05
2.30501e-05
2.2437e-05
2.18677e-05
2.13389e-05
2.08456e-05
2.03854e-05
1.99544e-05
1.95508e-05
1.91714e-05
1.8815e-05
1.84789e-05
1.81623e-05
1.78628e-05
1.758e-05
1.73117e-05
1.7058e-05
1.68166e-05
1.65878e-05
1.63697e-05
1.61627e-05
1.59649e-05
1.57769e-05
1.55969e-05
0.000589988
0.000318805
0.000209498
0.000153737
0.000120798
9.93421e-05
8.43725e-05
7.33869e-05
6.5009e-05
5.84237e-05
5.31206e-05
4.87643e-05
4.51261e-05
4.20447e-05
3.94037e-05
3.71162e-05
3.51174e-05
3.33564e-05
3.17945e-05
3.03998e-05
2.91481e-05
2.80183e-05
2.69945e-05
2.60622e-05
2.52106e-05
2.44292e-05
2.37109e-05
2.30475e-05
2.24342e-05
2.18648e-05
2.13358e-05
2.08423e-05
2.0382e-05
1.99507e-05
1.9547e-05
1.91673e-05
1.88108e-05
1.84744e-05
1.81577e-05
1.7858e-05
1.75751e-05
1.73066e-05
1.70527e-05
1.68111e-05
1.65822e-05
1.63639e-05
1.61568e-05
1.59588e-05
1.57706e-05
1.55905e-05
0.000589988
0.000318806
0.000209499
0.00015374
0.000120801
9.93454e-05
8.43759e-05
7.33903e-05
6.50123e-05
5.84269e-05
5.31237e-05
4.87671e-05
4.51288e-05
4.20472e-05
3.94059e-05
3.71182e-05
3.51192e-05
3.3358e-05
3.17959e-05
3.04011e-05
2.91492e-05
2.80192e-05
2.69952e-05
2.60626e-05
2.52108e-05
2.44293e-05
2.37107e-05
2.30472e-05
2.24337e-05
2.18641e-05
2.13349e-05
2.08413e-05
2.03807e-05
1.99493e-05
1.95454e-05
1.91656e-05
1.88089e-05
1.84724e-05
1.81555e-05
1.78556e-05
1.75725e-05
1.73039e-05
1.70498e-05
1.68081e-05
1.65791e-05
1.63607e-05
1.61534e-05
1.59553e-05
1.5767e-05
1.55868e-05
0.000589988
0.000318808
0.000209503
0.000153745
0.000120807
9.93515e-05
8.4382e-05
7.33964e-05
6.50182e-05
5.84326e-05
5.31292e-05
4.87724e-05
4.51339e-05
4.2052e-05
3.94105e-05
3.71225e-05
3.51233e-05
3.33618e-05
3.17995e-05
3.04044e-05
2.91523e-05
2.80221e-05
2.69978e-05
2.60651e-05
2.52131e-05
2.44314e-05
2.37126e-05
2.30489e-05
2.24352e-05
2.18654e-05
2.13361e-05
2.08423e-05
2.03815e-05
1.995e-05
1.95459e-05
1.91659e-05
1.88091e-05
1.84724e-05
1.81554e-05
1.78554e-05
1.75722e-05
1.73034e-05
1.70492e-05
1.68074e-05
1.65782e-05
1.63597e-05
1.61523e-05
1.59541e-05
1.57657e-05
1.55854e-05
0.000589988
0.00031881
0.000209509
0.000153753
0.000120815
9.93605e-05
8.43911e-05
7.34053e-05
6.50269e-05
5.8441e-05
5.31372e-05
4.87801e-05
4.51412e-05
4.2059e-05
3.94172e-05
3.71289e-05
3.51293e-05
3.33676e-05
3.1805e-05
3.04097e-05
2.91573e-05
2.80268e-05
2.70024e-05
2.60694e-05
2.52172e-05
2.44353e-05
2.37163e-05
2.30524e-05
2.24385e-05
2.18686e-05
2.1339e-05
2.0845e-05
2.03842e-05
1.99524e-05
1.95482e-05
1.91681e-05
1.88111e-05
1.84743e-05
1.81571e-05
1.7857e-05
1.75737e-05
1.73048e-05
1.70505e-05
1.68086e-05
1.65793e-05
1.63607e-05
1.61532e-05
1.59549e-05
1.57664e-05
1.55859e-05
0.000589989
0.000318815
0.000209517
0.000153764
0.000120828
9.9373e-05
8.44034e-05
7.34173e-05
6.50385e-05
5.84521e-05
5.31478e-05
4.87902e-05
4.51509e-05
4.20682e-05
3.9426e-05
3.71373e-05
3.51374e-05
3.33753e-05
3.18124e-05
3.04168e-05
2.91641e-05
2.80333e-05
2.70086e-05
2.60754e-05
2.5223e-05
2.44408e-05
2.37216e-05
2.30575e-05
2.24435e-05
2.18733e-05
2.13436e-05
2.08494e-05
2.03884e-05
1.99565e-05
1.95521e-05
1.91719e-05
1.88147e-05
1.84778e-05
1.81605e-05
1.78603e-05
1.75768e-05
1.73078e-05
1.70534e-05
1.68114e-05
1.6582e-05
1.63633e-05
1.61557e-05
1.59573e-05
1.57687e-05
1.55882e-05
0.00058999
0.000318821
0.00020953
0.00015378
0.000120844
9.93897e-05
8.44196e-05
7.34328e-05
6.50532e-05
5.84661e-05
5.31612e-05
4.88029e-05
4.51629e-05
4.20797e-05
3.9437e-05
3.71479e-05
3.51475e-05
3.3385e-05
3.18217e-05
3.04257e-05
2.91726e-05
2.80416e-05
2.70166e-05
2.60831e-05
2.52304e-05
2.4448e-05
2.37286e-05
2.30642e-05
2.245e-05
2.18796e-05
2.13497e-05
2.08554e-05
2.03942e-05
1.99621e-05
1.95575e-05
1.91772e-05
1.88199e-05
1.84828e-05
1.81654e-05
1.7865e-05
1.75814e-05
1.73123e-05
1.70578e-05
1.68157e-05
1.65862e-05
1.63674e-05
1.61597e-05
1.59612e-05
1.57725e-05
1.55919e-05
0.000589991
0.000318831
0.000209549
0.000153802
0.000120867
9.94111e-05
8.444e-05
7.34521e-05
6.50714e-05
5.84833e-05
5.31774e-05
4.88184e-05
4.51776e-05
4.20937e-05
3.94503e-05
3.71606e-05
3.51596e-05
3.33967e-05
3.18328e-05
3.04365e-05
2.9183e-05
2.80517e-05
2.70263e-05
2.60925e-05
2.52394e-05
2.44568e-05
2.37371e-05
2.30726e-05
2.2458e-05
2.18875e-05
2.13573e-05
2.08628e-05
2.04014e-05
1.99692e-05
1.95644e-05
1.91839e-05
1.88265e-05
1.84893e-05
1.81717e-05
1.78712e-05
1.75875e-05
1.73183e-05
1.70636e-05
1.68214e-05
1.65918e-05
1.63729e-05
1.61651e-05
1.59665e-05
1.57778e-05
1.55971e-05
0.000589994
0.000318847
0.000209575
0.000153831
0.000120895
9.9438e-05
8.44651e-05
7.34758e-05
6.50934e-05
5.85041e-05
5.31968e-05
4.88369e-05
4.51949e-05
4.21103e-05
3.94659e-05
3.71757e-05
3.51739e-05
3.34106e-05
3.1846e-05
3.04493e-05
2.91952e-05
2.80636e-05
2.70376e-05
2.61037e-05
2.52501e-05
2.44674e-05
2.37471e-05
2.30826e-05
2.24675e-05
2.1897e-05
2.13664e-05
2.08719e-05
2.041e-05
1.99779e-05
1.95727e-05
1.91922e-05
1.88344e-05
1.84973e-05
1.81793e-05
1.78789e-05
1.75948e-05
1.73257e-05
1.70707e-05
1.68286e-05
1.65987e-05
1.63799e-05
1.61718e-05
1.59733e-05
1.57843e-05
1.56037e-05
0.000589997
0.000318869
0.00020961
0.000153868
0.00012093
9.94708e-05
8.44952e-05
7.35041e-05
6.51193e-05
5.85287e-05
5.32194e-05
4.88586e-05
4.52149e-05
4.21298e-05
3.94839e-05
3.71935e-05
3.51903e-05
3.34269e-05
3.1861e-05
3.04645e-05
2.92091e-05
2.80778e-05
2.70506e-05
2.6117e-05
2.52623e-05
2.448e-05
2.37587e-05
2.30945e-05
2.24785e-05
2.19084e-05
2.13768e-05
2.08828e-05
2.042e-05
1.99883e-05
1.95823e-05
1.92023e-05
1.88436e-05
1.8507e-05
1.81882e-05
1.78883e-05
1.76034e-05
1.73348e-05
1.7079e-05
1.68374e-05
1.66067e-05
1.63885e-05
1.61796e-05
1.59817e-05
1.57919e-05
1.56119e-05
0.000590003
0.000318901
0.000209656
0.000153914
0.000120972
9.95098e-05
8.45308e-05
7.3537e-05
6.51495e-05
5.8557e-05
5.32455e-05
4.88835e-05
4.5238e-05
4.2152e-05
3.95046e-05
3.72136e-05
3.52091e-05
3.34454e-05
3.18783e-05
3.04816e-05
2.92252e-05
2.80938e-05
2.70656e-05
2.61321e-05
2.52764e-05
2.44942e-05
2.3772e-05
2.31081e-05
2.24911e-05
2.19213e-05
2.13889e-05
2.08952e-05
2.04315e-05
2.00003e-05
1.95933e-05
1.92139e-05
1.88543e-05
1.85182e-05
1.81985e-05
1.78992e-05
1.76134e-05
1.73454e-05
1.70887e-05
1.68477e-05
1.66162e-05
1.63986e-05
1.61888e-05
1.59916e-05
1.58009e-05
1.56215e-05
0.000590011
0.000318945
0.000209714
0.000153969
0.000121022
9.95547e-05
8.4572e-05
7.35742e-05
6.51842e-05
5.85886e-05
5.32756e-05
4.89109e-05
4.52645e-05
4.21764e-05
3.95285e-05
3.72356e-05
3.52309e-05
3.34654e-05
3.18984e-05
3.05001e-05
2.92439e-05
2.8111e-05
2.70832e-05
2.61483e-05
2.5293e-05
2.45095e-05
2.37877e-05
2.31226e-05
2.25061e-05
2.19352e-05
2.14032e-05
2.09085e-05
2.04453e-05
2.00131e-05
1.96067e-05
1.92262e-05
1.88672e-05
1.85302e-05
1.8211e-05
1.79108e-05
1.76255e-05
1.73567e-05
1.71006e-05
1.68588e-05
1.66277e-05
1.64093e-05
1.62001e-05
1.60021e-05
1.5812e-05
1.56319e-05
0.000590022
0.000319002
0.000209783
0.000154033
0.000121079
9.96057e-05
8.46182e-05
7.36159e-05
6.52226e-05
5.86238e-05
5.33086e-05
4.89415e-05
4.52936e-05
4.22035e-05
3.95545e-05
3.726e-05
3.52546e-05
3.34878e-05
3.19203e-05
3.05208e-05
2.92643e-05
2.81303e-05
2.71023e-05
2.61664e-05
2.53111e-05
2.45266e-05
2.38049e-05
2.31389e-05
2.25226e-05
2.19508e-05
2.1419e-05
2.09234e-05
2.04606e-05
2.00275e-05
1.96214e-05
1.92401e-05
1.88814e-05
1.85436e-05
1.82249e-05
1.79239e-05
1.76391e-05
1.73695e-05
1.71138e-05
1.68712e-05
1.66406e-05
1.64215e-05
1.62127e-05
1.60141e-05
1.58244e-05
1.56436e-05
0.000590036
0.000319073
0.000209862
0.000154104
0.000121142
9.96625e-05
8.46681e-05
7.36621e-05
6.52637e-05
5.86629e-05
5.33436e-05
4.89755e-05
4.53242e-05
4.22337e-05
3.95819e-05
3.72873e-05
3.52795e-05
3.35128e-05
3.19433e-05
3.05438e-05
2.92857e-05
2.81518e-05
2.71225e-05
2.61866e-05
2.53302e-05
2.45457e-05
2.38232e-05
2.3157e-05
2.25401e-05
2.1968e-05
2.1436e-05
2.094e-05
2.0477e-05
2.00434e-05
1.96373e-05
1.92554e-05
1.88969e-05
1.85585e-05
1.824e-05
1.79382e-05
1.76539e-05
1.73835e-05
1.71283e-05
1.68848e-05
1.66549e-05
1.64348e-05
1.62268e-05
1.6027e-05
1.58383e-05
1.56563e-05
0.000590054
0.000319158
0.00020995
0.000154184
0.000121208
9.97258e-05
8.4719e-05
7.37144e-05
6.53043e-05
5.8708e-05
5.33769e-05
4.90157e-05
4.53523e-05
4.22705e-05
3.9606e-05
3.73215e-05
3.53005e-05
3.3545e-05
3.19617e-05
3.05745e-05
2.93021e-05
2.81812e-05
2.71373e-05
2.62149e-05
2.53436e-05
2.45732e-05
2.38355e-05
2.31836e-05
2.25515e-05
2.1994e-05
2.14465e-05
2.09653e-05
2.04869e-05
2.00681e-05
1.96467e-05
1.92796e-05
1.89059e-05
1.85821e-05
1.82486e-05
1.79614e-05
1.76622e-05
1.74062e-05
1.71364e-05
1.69071e-05
1.66629e-05
1.64567e-05
1.62346e-05
1.60486e-05
1.5846e-05
1.56775e-05
0.000590075
0.000319253
0.000210046
0.000154267
0.000121281
9.9789e-05
8.4776e-05
7.37649e-05
6.5351e-05
5.87501e-05
5.34168e-05
4.90521e-05
4.53872e-05