/*--------------------------------*- C++ -*----------------------------------*\
| =========                 |                                                 |
| \\      /  F ield         | OpenFOAM: The Open Source CFD Toolbox           |
|  \\    /   O peration     | Version:  2412                                  |
|   \\  /    A nd           | Website:  www.openfoam.com                      |
|    \\/     M anipulation  |                                                 |
\*---------------------------------------------------------------------------*/
FoamFile
{
    version     2.0;
    format      ascii;
    arch        "LSB;label=32;scalar=64";
    class       volScalarField;
    location    "1500";
    object      nut;
}
// * * * * * * * * * * * * * * * * * * * * * * * * * * * * * * * * * * * * * //

dimensions      [0 2 -1 0 0 0 0];

internalField   nonuniform List<scalar> 
18000
(
6.67837e-08
2.22928e-08
1.31451e-08
1.03293e-08
1.30338e-08
1.62481e-08
1.82166e-08
1.94848e-08
2.03491e-08
2.09716e-08
2.14384e-08
2.17888e-08
2.20819e-08
2.23316e-08
2.25658e-08
2.27744e-08
2.29829e-08
2.31731e-08
2.33716e-08
2.35555e-08
2.37482e-08
2.3929e-08
2.41239e-08
2.43113e-08
2.45107e-08
2.47042e-08
2.49108e-08
2.51097e-08
2.53241e-08
2.55359e-08
2.57644e-08
2.59935e-08
2.62428e-08
2.64935e-08
2.67672e-08
2.70442e-08
2.73514e-08
2.76662e-08
2.80196e-08
2.83839e-08
2.87992e-08
2.92336e-08
2.97327e-08
3.02849e-08
3.09026e-08
3.17338e-08
3.24703e-08
3.43865e-08
3.50301e-08
3.58616e-08
8.02942e-08
2.72052e-08
1.83515e-08
2.51846e-08
8.21852e-08
1.39036e-07
1.6904e-07
1.89217e-07
2.03121e-07
2.12817e-07
2.19864e-07
2.25053e-07
2.2941e-07
2.3306e-07
2.36442e-07
2.39311e-07
2.42197e-07
2.44699e-07
2.47307e-07
2.49554e-07
2.51971e-07
2.541e-07
2.5644e-07
2.58513e-07
2.60786e-07
2.62842e-07
2.65096e-07
2.67089e-07
2.69303e-07
2.71323e-07
2.73595e-07
2.75718e-07
2.78117e-07
2.80337e-07
2.8287e-07
2.85222e-07
2.87977e-07
2.90528e-07
2.93596e-07
2.96392e-07
2.99892e-07
3.02966e-07
3.07052e-07
3.10528e-07
3.15646e-07
3.19933e-07
3.27064e-07
3.34251e-07
3.41197e-07
4.54482e-07
1.26104e-07
7.89635e-08
1.12387e-07
3.51975e-07
1.46939e-06
2.49064e-06
3.00071e-06
3.33339e-06
3.55717e-06
3.71006e-06
3.81924e-06
3.89855e-06
3.96458e-06
4.01927e-06
4.06946e-06
4.11132e-06
4.15319e-06
4.18882e-06
4.22579e-06
4.25684e-06
4.29031e-06
4.31907e-06
4.35081e-06
4.37808e-06
4.40817e-06
4.4346e-06
4.46378e-06
4.48868e-06
4.51666e-06
4.54128e-06
4.56943e-06
4.59486e-06
4.62404e-06
4.64996e-06
4.68016e-06
4.70697e-06
4.73926e-06
4.76761e-06
4.80299e-06
4.83309e-06
4.87291e-06
4.90442e-06
4.95045e-06
4.98347e-06
5.04198e-06
5.07749e-06
5.16369e-06
5.21243e-06
5.30011e-06
6.43862e-06
1.36398e-07
1.58815e-07
3.88562e-07
1.53547e-06
6.11736e-06
1.01174e-05
1.21823e-05
1.34909e-05
1.43493e-05
1.49256e-05
1.53287e-05
1.56158e-05
1.58492e-05
1.60378e-05
1.62065e-05
1.63429e-05
1.64764e-05
1.65856e-05
1.66971e-05
1.67859e-05
1.68811e-05
1.69583e-05
1.70442e-05
1.71127e-05
1.71893e-05
1.72515e-05
1.7322e-05
1.73762e-05
1.744e-05
1.74903e-05
1.75511e-05
1.76004e-05
1.76608e-05
1.77076e-05
1.77672e-05
1.78124e-05
1.78742e-05
1.79188e-05
1.79852e-05
1.80283e-05
1.81026e-05
1.81408e-05
1.82281e-05
1.82576e-05
1.83762e-05
1.83996e-05
1.85829e-05
1.86499e-05
1.87108e-05
2.05001e-05
9.63409e-08
2.15408e-07
7.66832e-07
3.178e-06
1.17519e-05
1.8895e-05
2.3288e-05
2.63256e-05
2.84075e-05
2.98486e-05
3.08751e-05
3.16183e-05
3.2217e-05
3.26976e-05
3.31192e-05
3.346e-05
3.37842e-05
3.40484e-05
3.4311e-05
3.452e-05
3.47377e-05
3.49123e-05
3.51019e-05
3.52518e-05
3.54157e-05
3.55465e-05
3.56936e-05
3.58046e-05
3.59337e-05
3.60322e-05
3.61508e-05
3.62428e-05
3.6357e-05
3.64408e-05
3.65504e-05
3.66272e-05
3.67381e-05
3.68106e-05
3.6928e-05
3.69943e-05
3.71247e-05
3.71795e-05
3.73296e-05
3.73759e-05
3.75634e-05
3.76478e-05
3.78564e-05
3.82303e-05
3.79187e-05
4.11038e-05
3.81517e-08
2.21274e-07
1.22385e-06
5.69531e-06
1.93847e-05
2.69121e-05
3.37552e-05
3.93479e-05
4.34998e-05
4.65444e-05
4.88031e-05
5.04906e-05
5.1853e-05
5.29499e-05
5.3899e-05
5.46748e-05
5.5393e-05
5.59831e-05
5.6552e-05
5.70135e-05
5.74771e-05
5.78533e-05
5.82453e-05
5.85598e-05
5.88927e-05
5.91606e-05
5.94535e-05
5.96781e-05
5.99291e-05
6.01214e-05
6.03445e-05
6.05168e-05
6.07258e-05
6.0879e-05
6.10751e-05
6.1211e-05
6.14036e-05
6.15277e-05
6.17267e-05
6.18388e-05
6.20543e-05
6.21521e-05
6.23852e-05
6.25022e-05
6.27419e-05
6.29995e-05
6.31102e-05
6.40216e-05
6.33064e-05
6.79833e-05
1.49051e-08
1.53875e-07
1.32666e-06
6.11642e-06
2.22698e-05
3.14572e-05
4.09116e-05
4.95565e-05
5.65102e-05
6.19561e-05
6.61991e-05
6.95102e-05
7.22275e-05
7.44463e-05
7.63643e-05
7.79579e-05
7.94081e-05
8.06175e-05
8.17585e-05
8.27063e-05
8.36313e-05
8.4397e-05
8.51659e-05
8.57983e-05
8.64471e-05
8.69764e-05
8.75209e-05
8.79499e-05
8.84087e-05
8.87688e-05
8.91695e-05
8.94859e-05
8.9854e-05
9.01321e-05
9.04703e-05
9.07147e-05
9.10382e-05
9.12587e-05
9.15824e-05
9.17845e-05
9.21214e-05
9.23113e-05
9.26524e-05
9.28988e-05
9.32098e-05
9.35713e-05
9.37584e-05
9.43659e-05
9.44755e-05
9.85383e-05
7.88084e-09
6.10015e-08
7.19954e-07
4.45011e-06
1.95727e-05
3.21456e-05
4.31978e-05
5.44863e-05
6.441e-05
7.27726e-05
7.9667e-05
8.53168e-05
9.00675e-05
9.40366e-05
9.74988e-05
0.000100425
0.000103071
0.000105318
0.000107414
0.000109194
0.000110897
0.000112337
0.000113747
0.000114937
0.000116129
0.000117088
0.000117963
0.000118665
0.000119399
0.000119997
0.000120642
0.000121165
0.000121738
0.000122192
0.000122713
0.000123117
0.000123606
0.000123975
0.000124449
0.00012479
0.000125253
0.000125573
0.000126039
0.000126375
0.000126901
0.000127263
0.000127992
0.000128394
0.000129484
0.000133304
5.8482e-09
2.05489e-08
2.36768e-07
1.96817e-06
1.0758e-05
2.94743e-05
4.09462e-05
5.33133e-05
6.54797e-05
7.65547e-05
8.63552e-05
9.47979e-05
0.000102127
0.000108443
0.000114033
0.000118839
0.000123197
0.000126972
0.000130482
0.000133511
0.000136383
0.000138857
0.000141253
0.000143318
0.000145351
0.000147095
0.00014873
0.000149963
0.00015122
0.00015227
0.000153368
0.000154281
0.000155242
0.000156028
0.000156889
0.000157586
0.000158377
0.000159009
0.000159752
0.000160335
0.000161033
0.000161585
0.000162254
0.000162829
0.000163523
0.000164152
0.000165018
0.000165721
0.000166863
0.000171004
5.43489e-09
9.75144e-09
5.51972e-08
4.99872e-07
3.98969e-06
1.50375e-05
3.54094e-05
4.73757e-05
6.02254e-05
7.27507e-05
8.49261e-05
9.59113e-05
0.000105939
0.000114915
0.000122999
0.000130101
0.000136627
0.000142396
0.000147758
0.000152451
0.000156892
0.000160795
0.000164561
0.000167858
0.000171068
0.00017387
0.00017665
0.000179024
0.000181386
0.000183413
0.000185478
0.000187147
0.000188703
0.000190011
0.000191395
0.000192556
0.000193809
0.000194858
0.000196012
0.000196974
0.000198022
0.000198927
0.000199905
0.000200819
0.000201776
0.000202753
0.000203817
0.000204921
0.000206126
0.000209905
5.67405e-09
6.14932e-09
1.40831e-08
8.11893e-08
7.84904e-07
4.79395e-06
1.60001e-05
3.79958e-05
5.0584e-05
6.33391e-05
7.63062e-05
8.85391e-05
0.000100703
0.000111975
0.000122367
0.000131852
0.000140778
0.000148791
0.000156268
0.000162931
0.000169284
0.000174977
0.000180458
0.000185306
0.000190005
0.000194153
0.00019827
0.000201929
0.000205578
0.000208778
0.000211993
0.00021479
0.000217598
0.000220008
0.000222485
0.000224614
0.000226846
0.000228761
0.000230791
0.0002323
0.00023386
0.000235268
0.0002367
0.000238076
0.000239434
0.00024085
0.000242238
0.000243804
0.000245158
0.000248241
5.78992e-09
5.42502e-09
7.13786e-09
2.37729e-08
1.37255e-07
5.60602e-07
4.51994e-06
1.34734e-05
3.21261e-05
5.14458e-05
6.29936e-05
7.53844e-05
8.82436e-05
0.000100295
0.00011202
0.000123429
0.000134413
0.000144356
0.000153847
0.000162552
0.000170995
0.000178654
0.000186013
0.000192589
0.000198991
0.000204734
0.000210418
0.000215544
0.00022065
0.000225185
0.000229703
0.000233705
0.00023776
0.000241335
0.000244978
0.000248184
0.000251486
0.000254394
0.00025741
0.000260065
0.000262767
0.000265205
0.000267647
0.000270009
0.000272209
0.000274756
0.000276863
0.000279321
0.000280941
0.000283754
5.79116e-09
5.36527e-09
6.59172e-09
3.07925e-09
1.60959e-08
1.15893e-07
5.69217e-07
1.90893e-06
1.09456e-05
2.18136e-05
4.12906e-05
6.0413e-05
7.15905e-05
8.30274e-05
9.5003e-05
0.000107019
0.000118633
0.000129372
0.000140299
0.000150694
0.000160939
0.000170197
0.000179195
0.000187418
0.000195573
0.000203017
0.000210415
0.000217112
0.000223742
0.000229666
0.000235573
0.000240856
0.000246206
0.000251006
0.000255888
0.000260259
0.000264714
0.000268698
0.000272741
0.000276403
0.000280106
0.000283499
0.000286852
0.000290092
0.000293124
0.000296432
0.00029944
0.00030317
0.000309514
0.000312804
5.76663e-09
5.45924e-09
5.8991e-09
5.25624e-09
6.4952e-09
1.65485e-08
5.36385e-08
8.14761e-09
1.99712e-06
4.06739e-06
1.27798e-05
2.44309e-05
4.16552e-05
6.16269e-05
7.56979e-05
8.61408e-05
9.68935e-05
0.000107683
0.000118999
0.000129867
0.000140643
0.000150277
0.000160222
0.000169689
0.000179311
0.000188167
0.000197017
0.000204954
0.00021286
0.000220019
0.000227269
0.000233845
0.000240542
0.000246598
0.00025276
0.000258306
0.000263927
0.00026896
0.000274032
0.000278615
0.000283233
0.00028749
0.000291689
0.00029573
0.000299545
0.000303544
0.000307279
0.000311604
0.000318442
0.000324402
5.74432e-09
5.54414e-09
5.51087e-09
5.69724e-09
5.46774e-09
6.42743e-09
9.86202e-09
1.24794e-09
1.07764e-07
4.38556e-07
1.08088e-06
4.68533e-06
9.9289e-06
1.95164e-05
3.41039e-05
5.07168e-05
6.87822e-05
8.48574e-05
9.45711e-05
0.000104119
0.000113947
0.000123413
0.000133591
0.000143374
0.000153366
0.000162502
0.000171715
0.000179873
0.000188455
0.000196465
0.000204797
0.000212431
0.000220268
0.000227329
0.000234533
0.00024095
0.000247476
0.000253291
0.000259252
0.00026462
0.000270114
0.000275137
0.000280189
0.000284946
0.000289558
0.000294187
0.000298563
0.000303483
0.000309736
0.000315539
5.73658e-09
5.54187e-09
5.43452e-09
5.52184e-09
5.47919e-09
5.84365e-09
5.87714e-09
6.94473e-09
9.37188e-09
2.44e-08
7.46798e-08
1.89949e-07
1.04825e-06
2.20942e-06
5.98651e-06
1.14109e-05
2.02075e-05
3.27764e-05
4.714e-05
6.28643e-05
7.90277e-05
9.61047e-05
0.000105331
0.000113656
0.0001223
0.000130483
0.000139077
0.000147129
0.000155875
0.000164064
0.000172652
0.000180453
0.000188492
0.00019564
0.000203031
0.000209496
0.000216298
0.000222426
0.000229005
0.000234886
0.000241137
0.000246688
0.000252525
0.000257711
0.000263092
0.000267958
0.00027305
0.000277886
0.000284128
0.000288946
5.73436e-09
5.52445e-09
5.40468e-09
5.4002e-09
5.39164e-09
5.55881e-09
5.57931e-09
5.87966e-09
6.06443e-09
6.59477e-09
1.0425e-08
4.96356e-09
6.74996e-08
1.13603e-07
4.54465e-07
8.50977e-07
2.20338e-06
4.22624e-06
8.31261e-06
1.41778e-05
2.26368e-05
3.27764e-05
4.54031e-05
5.80796e-05
7.21995e-05
8.61069e-05
0.000100749
0.000114601
0.000122266
0.000129173
0.000136471
0.000143092
0.000150165
0.000156577
0.00016352
0.000169715
0.000176535
0.000182642
0.000189371
0.000195206
0.000201621
0.000207043
0.000213068
0.000217969
0.00022357
0.000227939
0.000233325
0.000237275
0.000243418
0.000246821
5.73366e-09
5.51139e-09
5.382e-09
5.33292e-09
5.31458e-09
5.37782e-09
5.4209e-09
5.56583e-09
5.66206e-09
5.8672e-09
6.09055e-09
6.3597e-09
8.00292e-09
9.54578e-09
2.80438e-08
4.18608e-08
1.16704e-07
2.01285e-07
4.85118e-07
9.01045e-07
1.90558e-06
3.39324e-06
6.61226e-06
9.80113e-06
1.62149e-05
2.16101e-05
3.0767e-05
3.89898e-05
5.02684e-05
5.99885e-05
7.20293e-05
8.24804e-05
9.48437e-05
0.000105605
0.000117863
0.000128505
0.000137074
0.000142241
0.00014795
0.000152643
0.000157975
0.000162334
0.00016748
0.000171419
0.000176332
0.00017984
0.000184642
0.000187741
0.000192839
0.000195171
5.73331e-09
5.50517e-09
5.36102e-09
5.29488e-09
5.24479e-09
5.2804e-09
5.27308e-09
5.38685e-09
5.40258e-09
5.58069e-09
5.61734e-09
5.83474e-09
5.93623e-09
6.09506e-09
7.00265e-09
7.59115e-09
1.07728e-08
1.33286e-08
2.39036e-08
3.5634e-08
7.30005e-08
1.19458e-07
2.61965e-07
4.30038e-07
9.05808e-07
1.39473e-06
2.63744e-06
3.78482e-06
6.49417e-06
8.53267e-06
1.32215e-05
1.61484e-05
2.2891e-05
2.66589e-05
3.48638e-05
3.99992e-05
4.91093e-05
5.52923e-05
6.45296e-05
7.10438e-05
8.01013e-05
8.65468e-05
9.51614e-05
0.000101356
0.000109386
0.000115025
0.000122195
0.000126966
0.000132635
0.000135746
5.73372e-09
5.5002e-09
5.35027e-09
5.26252e-09
5.20902e-09
5.1958e-09
5.1968e-09
5.22973e-09
5.26854e-09
5.33343e-09
5.40271e-09
5.49134e-09
5.58887e-09
5.694e-09
5.81969e-09
5.9517e-09
6.15203e-09
6.36064e-09
6.83269e-09
7.28102e-09
8.5046e-09
9.6281e-09
1.31283e-08
1.71059e-08
2.79422e-08
4.05558e-08
7.43003e-08
1.08226e-07
2.02794e-07
2.84734e-07
5.17889e-07
6.94801e-07
1.19247e-06
1.54424e-06
2.45016e-06
3.0726e-06
4.59339e-06
5.60491e-06
7.95453e-06
9.38678e-06
1.24789e-05
1.44602e-05
1.79577e-05
2.06363e-05
2.43299e-05
2.74546e-05
3.11265e-05
3.43629e-05
3.76346e-05
4.04625e-05
5.73446e-09
5.49766e-09
5.34241e-09
5.24278e-09
5.17921e-09
5.14608e-09
5.13088e-09
5.13816e-09
5.15314e-09
5.18873e-09
5.22601e-09
5.28305e-09
5.33718e-09
5.41231e-09
5.4804e-09
5.57058e-09
5.65092e-09
5.75463e-09
5.8483e-09
5.96871e-09
6.08235e-09
6.22769e-09
6.40533e-09
6.59566e-09
6.91456e-09
7.25176e-09
7.88934e-09
8.65934e-09
1.02406e-08
1.18413e-08
1.56656e-08
1.89883e-08
2.71968e-08
3.38051e-08
4.90332e-08
6.08977e-08
9.12197e-08
1.13689e-07
1.73231e-07
2.14915e-07
3.20899e-07
3.99289e-07
5.52356e-07
7.10887e-07
9.25506e-07
1.17765e-06
1.46679e-06
1.81187e-06
2.1638e-06
2.56502e-06
5.73546e-09
5.49668e-09
5.33741e-09
5.22993e-09
5.15828e-09
5.11148e-09
5.08516e-09
5.07221e-09
5.07481e-09
5.08367e-09
5.10672e-09
5.13162e-09
5.17056e-09
5.20726e-09
5.25872e-09
5.30507e-09
5.36713e-09
5.42122e-09
5.492e-09
5.5524e-09
5.63052e-09
5.69623e-09
5.78067e-09
5.85147e-09
5.94177e-09
6.01841e-09
6.11506e-09
6.20071e-09
6.30766e-09
6.41464e-09
6.54107e-09
6.66445e-09
6.8383e-09
6.99443e-09
7.22792e-09
7.45411e-09
7.78452e-09
8.19867e-09
8.68342e-09
9.44906e-09
1.01983e-08
1.15772e-08
1.27584e-08
1.50944e-08
1.69491e-08
2.05158e-08
2.36218e-08
2.8584e-08
3.31928e-08
3.95352e-08
5.73668e-09
5.49682e-09
5.33447e-09
5.22203e-09
5.14349e-09
5.08846e-09
5.05184e-09
5.02821e-09
5.01638e-09
5.01349e-09
5.01847e-09
5.02992e-09
5.04732e-09
5.06983e-09
5.09685e-09
5.12784e-09
5.16215e-09
5.19997e-09
5.24026e-09
5.28371e-09
5.32874e-09
5.37668e-09
5.4254e-09
5.47692e-09
5.52847e-09
5.58276e-09
5.63642e-09
5.69274e-09
5.7479e-09
5.80559e-09
5.86177e-09
5.92025e-09
5.97689e-09
6.03573e-09
6.09235e-09
6.15123e-09
6.20756e-09
6.26629e-09
6.32254e-09
6.38105e-09
6.438e-09
6.49652e-09
6.55589e-09
6.61641e-09
6.6764e-09
6.74197e-09
6.80365e-09
6.87475e-09
6.93825e-09
7.01245e-09
5.73805e-09
5.4977e-09
5.33322e-09
5.21733e-09
5.13369e-09
5.07286e-09
5.02857e-09
4.99725e-09
4.97581e-09
4.96275e-09
4.95671e-09
4.95667e-09
4.96141e-09
4.97074e-09
4.98369e-09
5.00027e-09
5.01968e-09
5.04191e-09
5.06625e-09
5.09281e-09
5.12103e-09
5.1511e-09
5.18245e-09
5.21525e-09
5.24899e-09
5.28383e-09
5.31933e-09
5.35563e-09
5.39233e-09
5.42958e-09
5.46699e-09
5.50475e-09
5.54241e-09
5.58024e-09
5.61773e-09
5.65522e-09
5.6921e-09
5.72884e-09
5.76469e-09
5.80022e-09
5.83456e-09
5.86834e-09
5.90058e-09
5.9319e-09
5.96122e-09
5.98901e-09
6.01409e-09
6.03695e-09
6.05649e-09
6.07328e-09
5.73956e-09
5.49912e-09
5.33327e-09
5.21485e-09
5.12769e-09
5.06237e-09
5.01284e-09
4.97546e-09
4.94741e-09
4.9272e-09
4.91305e-09
4.90442e-09
4.90029e-09
4.90023e-09
4.90333e-09
4.90956e-09
4.91825e-09
4.92938e-09
4.94242e-09
4.95743e-09
4.9739e-09
4.99186e-09
5.01094e-09
5.03117e-09
5.05225e-09
5.07424e-09
5.09684e-09
5.12012e-09
5.1438e-09
5.16795e-09
5.19229e-09
5.21695e-09
5.24159e-09
5.26642e-09
5.29105e-09
5.31575e-09
5.34006e-09
5.36435e-09
5.38803e-09
5.41156e-09
5.43427e-09
5.45668e-09
5.47803e-09
5.49888e-09
5.51838e-09
5.53706e-09
5.55404e-09
5.56978e-09
5.58349e-09
5.59579e-09
5.74116e-09
5.50093e-09
5.33426e-09
5.21405e-09
5.12436e-09
5.05574e-09
5.00241e-09
4.96055e-09
4.92771e-09
4.90203e-09
4.88234e-09
4.86748e-09
4.85687e-09
4.8497e-09
4.84589e-09
4.8446e-09
4.84583e-09
4.84891e-09
4.85403e-09
4.86053e-09
4.86871e-09
4.87788e-09
4.88845e-09
4.89971e-09
4.91214e-09
4.92497e-09
4.93878e-09
4.95278e-09
4.96761e-09
4.98244e-09
4.99797e-09
5.01332e-09
5.02925e-09
5.04485e-09
5.06092e-09
5.07652e-09
5.09247e-09
5.10781e-09
5.12341e-09
5.13829e-09
5.1533e-09
5.16748e-09
5.18162e-09
5.19479e-09
5.20771e-09
5.21949e-09
5.23077e-09
5.24072e-09
5.24997e-09
5.25789e-09
5.74284e-09
5.50305e-09
5.33593e-09
5.2145e-09
5.12298e-09
5.05197e-09
4.99582e-09
4.9507e-09
4.91429e-09
4.88465e-09
4.86076e-09
4.84138e-09
4.82609e-09
4.81398e-09
4.80491e-09
4.79811e-09
4.79378e-09
4.79115e-09
4.79049e-09
4.791e-09
4.79314e-09
4.79612e-09
4.80046e-09
4.80537e-09
4.81143e-09
4.81784e-09
4.82524e-09
4.83279e-09
4.84118e-09
4.84957e-09
4.85868e-09
4.86765e-09
4.87724e-09
4.88656e-09
4.89641e-09
4.90588e-09
4.91581e-09
4.92523e-09
4.93504e-09
4.94422e-09
4.9537e-09
4.96244e-09
4.97138e-09
4.97945e-09
4.98757e-09
4.9947e-09
5.00174e-09
5.00766e-09
5.0134e-09
5.01804e-09
5.74458e-09
5.50541e-09
5.33812e-09
5.21588e-09
5.12306e-09
5.0503e-09
4.99208e-09
4.94454e-09
4.9055e-09
4.87292e-09
4.84595e-09
4.82319e-09
4.80446e-09
4.7886e-09
4.77584e-09
4.76505e-09
4.75676e-09
4.74978e-09
4.74491e-09
4.74093e-09
4.73877e-09
4.73714e-09
4.7371e-09
4.73728e-09
4.73891e-09
4.74052e-09
4.74346e-09
4.74619e-09
4.75015e-09
4.75373e-09
4.75845e-09
4.76264e-09
4.76791e-09
4.77251e-09
4.77815e-09
4.783e-09
4.78884e-09
4.79378e-09
4.79966e-09
4.80453e-09
4.81028e-09
4.81493e-09
4.8204e-09
4.82465e-09
4.82965e-09
4.83335e-09
4.83771e-09
4.84073e-09
4.84436e-09
4.8467e-09
5.74636e-09
5.50796e-09
5.3407e-09
5.21798e-09
5.1242e-09
5.05023e-09
4.99041e-09
4.94118e-09
4.90007e-09
4.86544e-09
4.83601e-09
4.81094e-09
4.78944e-09
4.77106e-09
4.75525e-09
4.74178e-09
4.73023e-09
4.72048e-09
4.71218e-09
4.70532e-09
4.69957e-09
4.69496e-09
4.69122e-09
4.68843e-09
4.68629e-09
4.68493e-09
4.68407e-09
4.68384e-09
4.68398e-09
4.68466e-09
4.68559e-09
4.68698e-09
4.68852e-09
4.69042e-09
4.69238e-09
4.69463e-09
4.69685e-09
4.6993e-09
4.70165e-09
4.70416e-09
4.7065e-09
4.70895e-09
4.71118e-09
4.71345e-09
4.71546e-09
4.71742e-09
4.7191e-09
4.72068e-09
4.72199e-09
4.72317e-09
5.74818e-09
5.51064e-09
5.34358e-09
5.22059e-09
5.12617e-09
5.05131e-09
4.99034e-09
4.93983e-09
4.89721e-09
4.86103e-09
4.8298e-09
4.80296e-09
4.77944e-09
4.75913e-09
4.74111e-09
4.72558e-09
4.71166e-09
4.69976e-09
4.68898e-09
4.67991e-09
4.67157e-09
4.66473e-09
4.65834e-09
4.65328e-09
4.64844e-09
4.6448e-09
4.64122e-09
4.63873e-09
4.63614e-09
4.63457e-09
4.63279e-09
4.63194e-09
4.63079e-09
4.63052e-09
4.62986e-09
4.63003e-09
4.62974e-09
4.63023e-09
4.6302e-09
4.6309e-09
4.63104e-09
4.63185e-09
4.63201e-09
4.63279e-09
4.63287e-09
4.63354e-09
4.63348e-09
4.63397e-09
4.63374e-09
4.63405e-09
5.75002e-09
5.51344e-09
5.3467e-09
5.2236e-09
5.12878e-09
5.05325e-09
4.99149e-09
4.93997e-09
4.8963e-09
4.85887e-09
4.82641e-09
4.79812e-09
4.77322e-09
4.75131e-09
4.73181e-09
4.71455e-09
4.69907e-09
4.68534e-09
4.67294e-09
4.66195e-09
4.65197e-09
4.64315e-09
4.6351e-09
4.62802e-09
4.62151e-09
4.61584e-09
4.61058e-09
4.60605e-09
4.60182e-09
4.59821e-09
4.59481e-09
4.59195e-09
4.58922e-09
4.58697e-09
4.58477e-09
4.58301e-09
4.58124e-09
4.57986e-09
4.57841e-09
4.57732e-09
4.57611e-09
4.57521e-09
4.57413e-09
4.57334e-09
4.57233e-09
4.57158e-09
4.57058e-09
4.56984e-09
4.56883e-09
4.56808e-09
5.75189e-09
5.51632e-09
5.35001e-09
5.22692e-09
5.13186e-09
5.05587e-09
4.99354e-09
4.94127e-09
4.89685e-09
4.85845e-09
4.82511e-09
4.7957e-09
4.76982e-09
4.74664e-09
4.72611e-09
4.70747e-09
4.69092e-09
4.67571e-09
4.66222e-09
4.64967e-09
4.63859e-09
4.62815e-09
4.619e-09
4.61026e-09
4.60267e-09
4.59531e-09
4.589e-09
4.58278e-09
4.57752e-09
4.57222e-09
4.56781e-09
4.56326e-09
4.55955e-09
4.5556e-09
4.55243e-09
4.54895e-09
4.5462e-09
4.54308e-09
4.54066e-09
4.5378e-09
4.5356e-09
4.53293e-09
4.53091e-09
4.52839e-09
4.5265e-09
4.52408e-09
4.52227e-09
4.51992e-09
4.51815e-09
4.51586e-09
5.75375e-09
5.51914e-09
5.35314e-09
5.22996e-09
5.13449e-09
5.0579e-09
4.99474e-09
4.94158e-09
4.89605e-09
4.85657e-09
4.82192e-09
4.79127e-09
4.76392e-09
4.7394e-09
4.71725e-09
4.69721e-09
4.67892e-09
4.66226e-09
4.64694e-09
4.6329e-09
4.61991e-09
4.60795e-09
4.59681e-09
4.58653e-09
4.57689e-09
4.56796e-09
4.55954e-09
4.55172e-09
4.5443e-09
4.5374e-09
4.53082e-09
4.52469e-09
4.51881e-09
4.51333e-09
4.50803e-09
4.50308e-09
4.49827e-09
4.49376e-09
4.48934e-09
4.48518e-09
4.48108e-09
4.4772e-09
4.47334e-09
4.46967e-09
4.46601e-09
4.4625e-09
4.45898e-09
4.4556e-09
4.45222e-09
4.44894e-09
5.75511e-09
5.52111e-09
5.35515e-09
5.23161e-09
5.1355e-09
5.05803e-09
4.99382e-09
4.93943e-09
4.89255e-09
4.85158e-09
4.81537e-09
4.78304e-09
4.75395e-09
4.7276e-09
4.70359e-09
4.68159e-09
4.66134e-09
4.64264e-09
4.62529e-09
4.60916e-09
4.59411e-09
4.58003e-09
4.56683e-09
4.55442e-09
4.54275e-09
4.53172e-09
4.52131e-09
4.51144e-09
4.5021e-09
4.49321e-09
4.48476e-09
4.4767e-09
4.46902e-09
4.46167e-09
4.45465e-09
4.44791e-09
4.44146e-09
4.43524e-09
4.42929e-09
4.42354e-09
4.41803e-09
4.4127e-09
4.40758e-09
4.4026e-09
4.39783e-09
4.39318e-09
4.38871e-09
4.38436e-09
4.38017e-09
4.37609e-09
5.75509e-09
5.52102e-09
5.35496e-09
5.23128e-09
5.13501e-09
5.05735e-09
4.99292e-09
4.9383e-09
4.89116e-09
4.84992e-09
4.8134e-09
4.78077e-09
4.75136e-09
4.72467e-09
4.70031e-09
4.67796e-09
4.65735e-09
4.63828e-09
4.62057e-09
4.60407e-09
4.58865e-09
4.5742e-09
4.56064e-09
4.54787e-09
4.53583e-09
4.52446e-09
4.5137e-09
4.5035e-09
4.49383e-09
4.48463e-09
4.47589e-09
4.46756e-09
4.45962e-09
4.45204e-09
4.44481e-09
4.43788e-09
4.43127e-09
4.42492e-09
4.41886e-09
4.41302e-09
4.40745e-09
4.40208e-09
4.39694e-09
4.39198e-09
4.38724e-09
4.38265e-09
4.37827e-09
4.37402e-09
4.36996e-09
4.36601e-09
5.75509e-09
5.52101e-09
5.35494e-09
5.23126e-09
5.13497e-09
5.0573e-09
4.99287e-09
4.93824e-09
4.8911e-09
4.84985e-09
4.81333e-09
4.78069e-09
4.75128e-09
4.72459e-09
4.70023e-09
4.67787e-09
4.65726e-09
4.63819e-09
4.62048e-09
4.60397e-09
4.58855e-09
4.5741e-09
4.56053e-09
4.54776e-09
4.53572e-09
4.52434e-09
4.51359e-09
4.50338e-09
4.49371e-09
4.4845e-09
4.47576e-09
4.46742e-09
4.45948e-09
4.45189e-09
4.44466e-09
4.43772e-09
4.4311e-09
4.42475e-09
4.41868e-09
4.41284e-09
4.40726e-09
4.40187e-09
4.39673e-09
4.39176e-09
4.387e-09
4.3824e-09
4.378e-09
4.37373e-09
4.36965e-09
4.36569e-09
5.75509e-09
5.52101e-09
5.35494e-09
5.23124e-09
5.13495e-09
5.05727e-09
4.99283e-09
4.9382e-09
4.89106e-09
4.8498e-09
4.81328e-09
4.78064e-09
4.75122e-09
4.72453e-09
4.70016e-09
4.6778e-09
4.6572e-09
4.63812e-09
4.62041e-09
4.60389e-09
4.58847e-09
4.57402e-09
4.56045e-09
4.54767e-09
4.53563e-09
4.52425e-09
4.51349e-09
4.50328e-09
4.4936e-09
4.48439e-09
4.47565e-09
4.4673e-09
4.45936e-09
4.45176e-09
4.44452e-09
4.43758e-09
4.43096e-09
4.42459e-09
4.41852e-09
4.41267e-09
4.40708e-09
4.40169e-09
4.39654e-09
4.39155e-09
4.38679e-09
4.38218e-09
4.37777e-09
4.37349e-09
4.3694e-09
4.36543e-09
5.75509e-09
5.52101e-09
5.35493e-09
5.23123e-09
5.13493e-09
5.05725e-09
4.99281e-09
4.93817e-09
4.89102e-09
4.84976e-09
4.81324e-09
4.78059e-09
4.75117e-09
4.72448e-09
4.70011e-09
4.67775e-09
4.65714e-09
4.63806e-09
4.62034e-09
4.60383e-09
4.5884e-09
4.57394e-09
4.56037e-09
4.54759e-09
4.53555e-09
4.52416e-09
4.5134e-09
4.50318e-09
4.4935e-09
4.48429e-09
4.47554e-09
4.46719e-09
4.45924e-09
4.45164e-09
4.44439e-09
4.43744e-09
4.43082e-09
4.42444e-09
4.41836e-09
4.4125e-09
4.40691e-09
4.40151e-09
4.39635e-09
4.39136e-09
4.38658e-09
4.38196e-09
4.37754e-09
4.37325e-09
4.36916e-09
4.36517e-09
5.75509e-09
5.52101e-09
5.35493e-09
5.23122e-09
5.13492e-09
5.05723e-09
4.99279e-09
4.93814e-09
4.891e-09
4.84974e-09
4.81321e-09
4.78056e-09
4.75114e-09
4.72444e-09
4.70007e-09
4.6777e-09
4.65709e-09
4.63801e-09
4.62029e-09
4.60377e-09
4.58835e-09
4.57388e-09
4.56031e-09
4.54752e-09
4.53548e-09
4.52408e-09
4.51332e-09
4.5031e-09
4.49342e-09
4.48419e-09
4.47544e-09
4.46708e-09
4.45913e-09
4.45152e-09
4.44427e-09
4.43731e-09
4.43068e-09
4.4243e-09
4.41821e-09
4.41235e-09
4.40675e-09
4.40133e-09
4.39617e-09
4.39116e-09
4.38639e-09
4.38175e-09
4.37733e-09
4.37303e-09
4.36892e-09
4.36492e-09
5.75509e-09
5.52101e-09
5.35492e-09
5.23122e-09
5.13491e-09
5.05722e-09
4.99278e-09
4.93813e-09
4.89098e-09
4.84972e-09
4.81319e-09
4.78054e-09
4.75112e-09
4.72442e-09
4.70005e-09
4.67768e-09
4.65706e-09
4.63798e-09
4.62026e-09
4.60374e-09
4.5883e-09
4.57384e-09
4.56026e-09
4.54747e-09
4.53542e-09
4.52402e-09
4.51325e-09
4.50303e-09
4.49334e-09
4.48411e-09
4.47535e-09
4.46699e-09
4.45903e-09
4.45142e-09
4.44416e-09
4.4372e-09
4.43056e-09
4.42417e-09
4.41808e-09
4.4122e-09
4.40659e-09
4.40118e-09
4.396e-09
4.39099e-09
4.3862e-09
4.38156e-09
4.37712e-09
4.37282e-09
4.3687e-09
4.3647e-09
5.75509e-09
5.52101e-09
5.35492e-09
5.23122e-09
5.13492e-09
5.05723e-09
4.99278e-09
4.93813e-09
4.89098e-09
4.84972e-09
4.81319e-09
4.78054e-09
4.75112e-09
4.72441e-09
4.70004e-09
4.67767e-09
4.65705e-09
4.63797e-09
4.62024e-09
4.60372e-09
4.58829e-09
4.57382e-09
4.56023e-09
4.54744e-09
4.53539e-09
4.52399e-09
4.51321e-09
4.50298e-09
4.49329e-09
4.48406e-09
4.47529e-09
4.46692e-09
4.45896e-09
4.45134e-09
4.44408e-09
4.43711e-09
4.43046e-09
4.42407e-09
4.41797e-09
4.41209e-09
4.40647e-09
4.40105e-09
4.39586e-09
4.39085e-09
4.38605e-09
4.38141e-09
4.37696e-09
4.37265e-09
4.36852e-09
4.36451e-09
5.75509e-09
5.52101e-09
5.35493e-09
5.23123e-09
5.13493e-09
5.05724e-09
4.99279e-09
4.93815e-09
4.891e-09
4.84974e-09
4.81321e-09
4.78056e-09
4.75114e-09
4.72443e-09
4.70006e-09
4.67769e-09
4.65707e-09
4.63798e-09
4.62026e-09
4.60373e-09
4.5883e-09
4.57382e-09
4.56024e-09
4.54744e-09
4.53539e-09
4.52398e-09
4.5132e-09
4.50297e-09
4.49327e-09
4.48404e-09
4.47527e-09
4.4669e-09
4.45893e-09
4.45131e-09
4.44404e-09
4.43707e-09
4.43041e-09
4.42402e-09
4.41791e-09
4.41203e-09
4.4064e-09
4.40098e-09
4.39579e-09
4.39077e-09
4.38597e-09
4.38131e-09
4.37686e-09
4.37254e-09
4.36841e-09
4.3644e-09
5.75509e-09
5.52101e-09
5.35493e-09
5.23124e-09
5.13494e-09
5.05726e-09
4.99282e-09
4.93818e-09
4.89103e-09
4.84978e-09
4.81325e-09
4.7806e-09
4.75118e-09
4.72447e-09
4.7001e-09
4.67773e-09
4.65711e-09
4.63802e-09
4.62029e-09
4.60377e-09
4.58833e-09
4.57386e-09
4.56027e-09
4.54747e-09
4.53541e-09
4.52401e-09
4.51323e-09
4.50299e-09
4.49329e-09
4.48406e-09
4.47528e-09
4.46691e-09
4.45894e-09
4.45131e-09
4.44404e-09
4.43706e-09
4.43041e-09
4.42401e-09
4.4179e-09
4.41201e-09
4.40638e-09
4.40095e-09
4.39576e-09
4.39073e-09
4.38593e-09
4.38127e-09
4.37682e-09
4.3725e-09
4.36836e-09
4.36434e-09
5.75509e-09
5.52101e-09
5.35494e-09
5.23125e-09
5.13497e-09
5.05729e-09
4.99286e-09
4.93822e-09
4.89108e-09
4.84983e-09
4.8133e-09
4.78065e-09
4.75123e-09
4.72453e-09
4.70016e-09
4.67779e-09
4.65717e-09
4.63808e-09
4.62035e-09
4.60383e-09
4.58839e-09
4.57391e-09
4.56033e-09
4.54753e-09
4.53547e-09
4.52406e-09
4.51328e-09
4.50304e-09
4.49334e-09
4.4841e-09
4.47533e-09
4.46695e-09
4.45898e-09
4.45134e-09
4.44407e-09
4.43709e-09
4.43044e-09
4.42404e-09
4.41792e-09
4.41203e-09
4.4064e-09
4.40097e-09
4.39577e-09
4.39075e-09
4.38594e-09
4.38128e-09
4.37683e-09
4.3725e-09
4.36836e-09
4.36434e-09
5.75509e-09
5.52102e-09
5.35495e-09
5.23128e-09
5.135e-09
5.05734e-09
4.99291e-09
4.93828e-09
4.89114e-09
4.84989e-09
4.81337e-09
4.78073e-09
4.75131e-09
4.72461e-09
4.70024e-09
4.67787e-09
4.65725e-09
4.63816e-09
4.62043e-09
4.60391e-09
4.58847e-09
4.57399e-09
4.56041e-09
4.54761e-09
4.53554e-09
4.52414e-09
4.51335e-09
4.50311e-09
4.49341e-09
4.48417e-09
4.4754e-09
4.46702e-09
4.45904e-09
4.45141e-09
4.44414e-09
4.43716e-09
4.4305e-09
4.4241e-09
4.41798e-09
4.41209e-09
4.40646e-09
4.40102e-09
4.39582e-09
4.39079e-09
4.38599e-09
4.38133e-09
4.37687e-09
4.37254e-09
4.3684e-09
4.36437e-09
5.75509e-09
5.52102e-09
5.35498e-09
5.23131e-09
5.13505e-09
5.05739e-09
4.99298e-09
4.93835e-09
4.89122e-09
4.84998e-09
4.81346e-09
4.78082e-09
4.7514e-09
4.7247e-09
4.70033e-09
4.67796e-09
4.65735e-09
4.63826e-09
4.62053e-09
4.60401e-09
4.58857e-09
4.57409e-09
4.56051e-09
4.54771e-09
4.53564e-09
4.52424e-09
4.51345e-09
4.50321e-09
4.49351e-09
4.48427e-09
4.47549e-09
4.46711e-09
4.45914e-09
4.4515e-09
4.44423e-09
4.43725e-09
4.43059e-09
4.42418e-09
4.41807e-09
4.41218e-09
4.40654e-09
4.40111e-09
4.39591e-09
4.39088e-09
4.38607e-09
4.38141e-09
4.37695e-09
4.37262e-09
4.36848e-09
4.36445e-09
5.75509e-09
5.52103e-09
5.355e-09
5.23136e-09
5.13511e-09
5.05747e-09
4.99306e-09
4.93845e-09
4.89132e-09
4.85008e-09
4.81356e-09
4.78093e-09
4.75151e-09
4.72482e-09
4.70045e-09
4.67808e-09
4.65746e-09
4.63838e-09
4.62065e-09
4.60413e-09
4.58869e-09
4.57422e-09
4.56063e-09
4.54783e-09
4.53576e-09
4.52436e-09
4.51357e-09
4.50334e-09
4.49363e-09
4.4844e-09
4.47561e-09
4.46724e-09
4.45926e-09
4.45163e-09
4.44435e-09
4.43737e-09
4.43071e-09
4.42431e-09
4.41818e-09
4.4123e-09
4.40666e-09
4.40123e-09
4.39602e-09
4.391e-09
4.38618e-09
4.38152e-09
4.37706e-09
4.37273e-09
4.36859e-09
4.36456e-09
5.75509e-09
5.52105e-09
5.35504e-09
5.23143e-09
5.13519e-09
5.05756e-09
4.99316e-09
4.93856e-09
4.89143e-09
4.85021e-09
4.81368e-09
4.78107e-09
4.75163e-09
4.72496e-09
4.70057e-09
4.67824e-09
4.65759e-09
4.63854e-09
4.62078e-09
4.60429e-09
4.58881e-09
4.57438e-09
4.56075e-09
4.548e-09
4.53589e-09
4.52453e-09
4.5137e-09
4.50351e-09
4.49376e-09
4.48457e-09
4.47574e-09
4.46741e-09
4.45939e-09
4.4518e-09
4.44448e-09
4.43755e-09
4.43084e-09
4.42448e-09
4.41831e-09
4.41247e-09
4.40679e-09
4.4014e-09
4.39615e-09
4.39117e-09
4.38631e-09
4.3817e-09
4.37719e-09
4.37291e-09
4.36872e-09
4.36473e-09
5.75509e-09
5.52107e-09
5.3551e-09
5.23151e-09
5.13528e-09
5.05768e-09
4.99327e-09
4.9387e-09
4.89155e-09
4.85037e-09
4.8138e-09
4.78124e-09
4.75176e-09
4.72515e-09
4.70069e-09
4.67844e-09
4.65771e-09
4.63875e-09
4.6209e-09
4.60451e-09
4.58893e-09
4.57461e-09
4.56087e-09
4.54824e-09
4.53601e-09
4.52478e-09
4.51381e-09
4.50376e-09
4.49387e-09
4.48483e-09
4.47585e-09
4.46767e-09
4.45949e-09
4.45207e-09
4.44458e-09
4.43782e-09
4.43094e-09
4.42475e-09
4.41842e-09
4.41275e-09
4.4069e-09
4.40168e-09
4.39626e-09
4.39145e-09
4.38642e-09
4.38198e-09