/*--------------------------------*- C++ -*----------------------------------*\
| =========                 |                                                 |
| \\      /  F ield         | OpenFOAM: The Open Source CFD Toolbox           |
|  \\    /   O peration     | Version:  2412                                  |
|   \\  /    A nd           | Website:  www.openfoam.com                      |
|    \\/     M anipulation  |                                                 |
\*---------------------------------------------------------------------------*/
FoamFile
{
    version     2.0;
    format      ascii;
    arch        "LSB;label=32;scalar=64";
    class       volScalarField;
    location    "1500";
    object      omega;
}
// * * * * * * * * * * * * * * * * * * * * * * * * * * * * * * * * * * * * * //

dimensions      [0 0 -1 0 0 0 0];

internalField   nonuniform List<scalar> 
18000
(
5.08173e+06
5.07993e+06
5.07957e+06
5.07945e+06
5.07956e+06
5.07969e+06
5.07977e+06
5.07982e+06
5.07986e+06
5.07988e+06
5.0799e+06
5.07991e+06
5.07993e+06
5.07994e+06
5.07995e+06
5.07995e+06
5.07996e+06
5.07997e+06
5.07998e+06
5.07999e+06
5.07999e+06
5.08e+06
5.08001e+06
5.08002e+06
5.08002e+06
5.08003e+06
5.08004e+06
5.08005e+06
5.08006e+06
5.08007e+06
5.08007e+06
5.08008e+06
5.08009e+06
5.0801e+06
5.08012e+06
5.08013e+06
5.08014e+06
5.08015e+06
5.08017e+06
5.08018e+06
5.0802e+06
5.08021e+06
5.08023e+06
5.08026e+06
5.08028e+06
5.08032e+06
5.08035e+06
5.08042e+06
5.08045e+06
5.08048e+06
848179
823518
804923
835998
839844
844323
847142
849005
850291
851215
851912
852438
852876
853249
853598
853912
854224
854513
854810
855091
855383
855660
855953
856239
856541
856836
857148
857451
857772
858091
858430
858771
859137
859506
859904
860307
860744
861193
861686
862195
862757
863352
863996
864733
865453
866533
867169
869322
869511
864394
350589
354781
326621
317211
318821
319785
320624
321494
322199
322750
323203
323569
323892
324182
324467
324738
325018
325288
325572
325852
326146
326436
326740
327046
327369
327693
328032
328369
328720
329077
329451
329835
330238
330653
331089
331541
332016
332514
333040
333600
334183
334830
335467
336260
336904
338008
338488
340116
340406
334805
194000
240106
227651
213581
202411
191990
186932
184453
183037
182161
181607
181251
181012
180855
180752
180699
180679
180691
180722
180782
180859
180955
181059
181183
181318
181468
181624
181794
181968
182158
182354
182567
182785
183021
183261
183523
183785
184076
184361
184690
184996
185373
185688
186140
186427
186963
187191
187402
187975
180977
126591
171427
181623
173793
153319
137674
129350
124660
121740
119814
118498
117573
116893
116383
115983
115674
115427
115238
115083
114971
114884
114830
114788
114771
114769
114783
114806
114846
114891
114953
115020
115104
115189
115289
115389
115508
115622
115758
115882
116038
116167
116342
116469
116656
116778
116904
117055
116693
117036
111965
97106.4
108972
134855
135665
120237
106965
98458.5
92973.8
89319
86806.5
85020.4
83715.6
82730
81968.9
81355.6
80862.7
80455.1
80122.5
79838.4
79605.4
79407.5
79248
79109.6
78998.3
78904.4
78831
78770
78727.6
78694
78677
78668
78671.5
78678.5
78696
78715.5
78748.8
78778.8
78823.5
78859.7
78913.9
78951.4
79007.9
79045.4
79086
79124.8
79095.1
79136.7
78774.4
78762.6
75719.5
88574
74795.8
86936
100203
93779.9
85644.9
78997.8
74040.3
70386.2
67707.7
65699.1
64164.6
62971.3
62024.7
61248.4
60611.4
60078.6
59632.1
59247.1
58919.8
58637.3
58397.4
58186.6
58004.6
57844.5
57707.1
57590.4
57493.7
57410.6
57342.3
57284.4
57237.1
57195.8
57163
57134.8
57115.6
57097.8
57087.3
57075.9
57070.1
57061.1
57051.5
57042.6
57017.3
57001.3
56929.4
56890.9
56639.9
56443.6
54628
85575.9
54983.9
57810.5
68227.3
72853.5
69989.8
65397.8
61666.9
58517.5
55983.4
53927
52271.1
50938
49847.3
48936.8
48178.8
47538.6
46992.9
46520.1
46111.9
45757.4
45449.6
45177.5
44936.7
44722.7
44532.7
44367.3
44225.3
44101
43991.1
43893.8
43806.5
43728.7
43658.7
43596.4
43540.2
43489.8
43442
43399.6
43355
43317.2
43268.4
43233
43171.3
43129.4
43035.7
42965.5
42766.4
42545.6
41297.4
85668
47018
40939.5
44147.1
53862.9
56792.6
55307.7
52963.3
50522
48325.5
46357.9
44693.1
43295.5
42109.3
41099.8
40247.2
39516.8
38884.5
38334
37854.7
37436.5
37067.9
36740.2
36447
36185.6
35950.3
35739.8
35552.8
35386.2
35235
35098.7
34973.7
34862.5
34760.1
34668.2
34581.5
34503.8
34426.8
34359.3
34286.2
34226
34151.2
34096
34011.8
33955.7
33846.7
33769.6
33595
33398.3
32543.5
86254.6
45278.5
33115.7
30839.5
34497.9
42961.4
45684.8
45250.5
44055.6
42547.9
40933.3
39475.9
38151.9
36965.5
35928
35029.2
34238.4
33542
32930.8
32393.8
31920.5
31497.4
31118.9
30778.2
30473.7
30198.3
29949.2
29721.5
29515.3
29325.7
29153.5
28993.6
28849.8
28715.8
28594.9
28479.5
28375.5
28272.1
28180.7
28084.1
28004.1
27909.7
27837.4
27737.9
27668.3
27551.8
27470.7
27309.3
27139.9
26594.1
86917
45048.3
31079.6
24951.1
24146.6
27036
34100.4
37186.9
37704.7
37273.2
36332.7
35337.5
34264.4
33231
32287.1
31425
30631.5
29918.6
29282.3
28713.1
28201.4
27736.3
27317.1
26937.7
26596.6
26285.9
26003.5
25741.6
25501.8
25279.2
25076.2
24886.8
24714
24551.5
24403.8
24262.1
24133.9
24006.7
23893.5
23775.7
23675.9
23564
23474.3
23361.9
23277.7
23155.6
23065.7
22913.9
22766.7
22413.5
87562.3
45298.9
30280.8
23677.4
19949.6
19371.7
21229.1
26126.1
30097.4
31547.2
31621.4
31338.1
30718.7
30032.9
29330
28615
27916.5
27275.8
26680.3
26127.5
25612.6
25135.5
24700.9
24303.1
23940.1
23604.8
23296.7
23008.4
22742.4
22494.2
22266.8
22053.9
21858.2
21672.5
21502.3
21338.4
21189
21041.6
20909.5
20774.1
20656
20529.4
20423.1
20300.5
20201.5
20076.2
19974.8
19830.6
19694.7
19427.8
88232.7
45675.6
30202.2
23000.7
19092.8
16765.7
15854.1
16735.4
19188.3
23337.7
25765.9
26737.7
26890.7
26745.5
26394.4
25948.3
25476.5
25013.7
24536.1
24067.9
23610.8
23181.3
22781.5
22404.2
22049
21712.7
21397.7
21099.7
20823.6
20563.9
20323.9
20096.9
19886.4
19684.8
19498.1
19317.4
19151.3
18988.2
18840.6
18692.4
18559.9
18422.9
18302.7
18173.3
18060.9
17934.5
17822.1
17685.6
17550.7
17329.2
88925.4
46112
30327
22784.2
18650.8
16028.1
14515.9
13427.5
13332.7
14827.1
16767.6
19676.1
21634.4
22658.3
23011.5
23002.4
22895
22654.6
22356.5
22055.3
21737.7
21426.7
21117
20806.2
20500.8
20204.1
19919
19647
19392.5
19148.1
18917.4
18694.4
18484.1
18280
18088.4
17902.1
17729
17559.9
17404.4
17251.1
17110.3
16969.1
16839.4
16707.6
16585.1
16458.9
16338.3
16207.1
16074.2
15884.7
89626.5
46600.8
30568.7
22810.1
18453.4
15704.9
13941.5
12669.3
11833.6
11352.2
11409.6
12200
13536.4
15641
17522
18766.3
19498.6
19800
19839.5
19802
19701.5
19522.6
19331.5
19129.6
18926.2
18718.6
18509.6
18305.4
18106.8
17906.7
17711.9
17518.4
17332.3
17149.2
16975
16804.9
16644.5
16488.4
16340.8
16196.4
16058.6
15923.7
15793.2
15666.4
15540.8
15419.9
15295.2
15173
15037.1
14880.8
90329.4
47124.8
30882.7
22945.6
18435.4
15564.8
13668.9
12279.4
11340
10548
10095.3
9645.03
9718.1
9916.61
10651.7
11789.1
13226.4
14612.8
15702.2
16433.7
16903.7
17119.1
17180.6
17166.5
17126.9
17040.7
16933.4
16805.8
16677.1
16542.1
16410.5
16275.8
16142.1
16007.6
15875.9
15746.1
15619.9
15495.9
15372.6
15252.6
15131.6
15016.5
14897.9
14788.3
14670.8
14566.1
14446.4
14342.4
14208.3
14083.7
91031.2
47672.2
31240.8
23163.8
18517.1
15560.7
13548.5
12107
11040.7
10233.5
9598.6
9120.65
8716.6
8464.83
8251.16
8280.12
8399.84
8806.65
9458.62
10361.9
11338.8
12322.4
13151.7
13806.5
14274.1
14599.7
14792.2
14889.9
14907.7
14896.9
14868.9
14822
14759.1
14688.3
14608.9
14525.8
14438.2
14352.6
14263.2
14179.3
14088.5
14006.7
13915
13834.5
13740
13660.4
13560.7
13477.8
13363.4
13259.1
91731.1
48232.7
31634
23424.8
18676.2
15632.4
13544.5
12039.6
10910.6
10046.1
9361.91
8820.21
8375.41
8017
7717.79
7477
7286.78
7148
7070.83
7098.74
7186.77
7406.02
7783.19
8292.54
8886.56
9541.91
10179.8
10805.4
11333.7
11790.6
12136
12421.5
12613.8
12765.1
12847.6
12903.5
12913.4
12907.9
12888.9
12864.3
12820.1
12785.9
12734.2
12689.5
12629
12575.4
12506.8
12440.2
12356.6
12262.4
92428.2
48803
32048.8
23720.9
18878.9
15763.8
13611.5
12051.2
10876.1
9964.78
9242.13
8658.58
8180.5
7783.4
7451.09
7169.33
6930.52
6725.53
6551.34
6402.87
6281.38
6183.26
6113.93
6077.97
6088.22
6143.61
6239.67
6396.99
6642.15
6927.9
7274.64
7646.26
8039.47
8436.15
8819.14
9187.45
9518.31
9815.57
10064.9
10282.5
10455.7
10600.9
10712.3
10801.9
10865.2
10908.1
10926.4
10921.1
10893.3
10843.6
93122.5
49379.9
32479.5
24040.3
19115.4
15933.2
13728.7
12121.1
10904.8
9956.95
9202.14
8586.92
8081.16
7656.09
7299.45
6992.25
6731.33
6501.67
6305.53
6129.31
5978.91
5841.19
5724.54
5616.16
5526.26
5442.76
5376.25
5316.05
5272.95
5239.41
5222.89
5226.29
5245.57
5274.23
5350.12
5413.32
5541.71
5648.75
5819.9
5965.48
6160.35
6324.37
6523.49
6685.05
6870.09
7012.24
7168.92
7275.07
7378.99
7426.32
93814.1
49962
32921.8
24377.6
19374.8
16132.3
13879.3
12231.1
10980.5
10000.8
9217.61
8577.66
8048.38
7601.98
7224.51
6898.74
6619.1
6373.04
6159.76
5968.85
5802.44
5651.04
5518.79
5396.55
5289.88
5189.68
5102.61
5019.52
4947.83
4878.4
4819.16
4761.06
4712.33
4664
4624.32
4584.95
4553.56
4523.26
4500.01
4479.24
4464.09
4453.4
4446.17
4445.51
4447.32
4452.43
4461.36
4467.03
4477.55
4477.74
94503.1
50548.3
33372.9
24728.2
19651.5
16353
14054.9
12370.5
11088.1
10082.1
9274.52
8612.84
8062.92
7599.33
7204.43
6863.85
6568.56
6309.63
6082.16
5880
5700.55
5539.27
5394.95
5263.98
5146.01
5038.02
4940.25
4850.05
4768.01
4691.78
4622.19
4557.08
4497.45
4441.3
4389.72
4340.84
4295.82
4252.87
4213.18
4175.07
4139.75
4105.59
4073.78
4042.7
4013.56
3984.59
3957.02
3928.83
3901.24
3872.25
95189.9
51138.5
33831.5
25089.2
19941.5
16589.6
14249.6
12531.2
11220.3
10189.9
9360.83
8680.48
8113.38
7633.88
7224.19
6870.5
6562.79
6292.59
6054.08
5841.91
5652.55
5482.35
5329.08
5190.08
5063.99
4948.77
4843.6
4746.84
4658.06
4575.87
4500.11
4429.59
4364.32
4303.22
4246.47
4193.07
4143.3
4096.21
4052.18
4010.29
3970.96
3933.3
3897.8
3863.51
3830.99
3799.21
3768.76
3738.47
3709.07
3679.39
95874.8
51732.3
34296.4
25458.8
20242.2
16838.8
14458.8
12708.3
11370.8
10317.9
9469.21
8771.7
8189.24
7696.1
7273.88
6908.59
6589.88
6309.69
6061.8
5841.09
5643.56
5465.75
5305.15
5159.33
5026.63
4905.26
4794.11
4691.79
4597.57
4510.36
4429.66
4354.58
4284.8
4219.57
4158.73
4101.59
4048.1
3997.66
3950.26
3905.37
3863.04
3822.75
3784.62
3748.1
3713.35
3679.81
3647.67
3616.29
3585.98
3556.17
96558.2
52329.9
34767.2
25835.9
20551.6
17098.2
14679.6
12898.2
11535.4
10461.3
9594.35
8880.95
8284.42
7778.74
7345.15
6969.57
6641.47
6352.58
6096.54
5868.12
5663.4
5478.91
5312.03
5160.35
5022.08
4895.46
4779.29
4672.24
4573.49
4481.99
4397.19
4318.23
4244.74
4176.02
4111.81
4051.51
3994.96
3941.65
3891.5
3844.04
3799.25
3756.69
3716.38
3677.89
3641.28
3606.12
3572.5
3539.97
3508.72
3478.34
97240.4
52931.3
35243.5
26219.5
20868.7
17366
14909.7
13098.4
11711.2
10616.7
9732.49
9004.11
8394.42
7877.07
7433.01
7047.96
6711.24
6414.43
6151.11
5915.99
5705.01
5514.66
5342.24
5185.34
5042.15
4910.91
4790.36
4679.2
4576.52
4481.33
4392.99
4310.7
4234.02
4162.29
4095.2
4032.21
3973.09
3917.39
3864.95
3815.34
3768.5
3724.02
3681.89
3641.73
3603.55
3566.99
3532.09
3498.51
3466.36
3435.35
97921.6
53536.9
35725.3
26609.4
21192.6
17641.2
15147.7
13307.2
11896.1
10781.9
9880.97
9138.24
8516.03
7987.63
7533.72
7139.82
6795.07
6490.95
6220.91
5979.61
5762.89
5567.21
5389.83
5228.3
5080.75
4945.42
4821
4706.18
4600.04
4501.57
4410.12
4324.88
4245.39
4170.99
4101.35
4035.93
3974.5
3916.58
3862.04
3810.45
3761.73
3715.51
3671.74
3630.08
3590.51
3552.72
3516.72
3482.23
3449.31
3417.71
98602.3
54146.8
36212.7
27005.3
21522.9
17923.1
15392.7
13523.2
12088.8
10955.2
10037.9
9281.25
8646.93
8107.91
7644.58
7242.26
6889.9
6578.89
6302.55
6055.47
5833.41
5632.8
5450.83
5285.03
5133.47
4994.39
4866.44
4748.3
4639.03
4537.61
4443.35
4355.46
4273.45
4196.67
4124.76
4057.19
3993.71
3933.86
3877.46
3824.12
3773.72
3725.91
3680.62
3637.53
3596.6
3557.55
3520.37
3484.79
3450.87
3418.35
99282.4
54761.3
36705.7
27407.2
21859.2
18211.1
15644
13745.7
12288
11135.3
10202
9431.65
8785.51
8236.14
7763.67
7353.2
6993.54
6675.91
6393.56
6140.98
5913.88
5708.6
5522.32
5352.49
5197.2
5054.61
4923.39
4802.17
4690.01
4585.85
4489.02
4398.69
4314.38
4235.4
4161.42
4091.88
4026.53
3964.89
3906.82
3851.87
3799.96
3750.7
3704.06
3659.68
3617.56
3577.38
3539.16
3502.63
3467.83
3434.5
99962.3
55380.4
37204.4
27814.9
22201.4
18505
15901.2
13974.1
12493.3
11321.5
10372.3
9588.36
8930.56
8371.01
7889.6
7471.15
7104.39
6780.32
6492.17
6234.26
6002.32
5792.54
5602.15
5428.47
5269.65
5123.71
4989.42
4865.26
4750.4
4643.63
4544.42
4451.76
4365.33
4284.27
4208.39
4136.97
4069.92
4006.59
3946.98
3890.5
3837.21
3786.58
3738.7
3693.08
3649.87
3608.59
3569.42
3531.91
3496.28
3462.1
100642
56004.2
37709.1
28228.6
22549.4
18804.6
16163.9
14207.9
12703.9
11513.2
10548
9750.65
9081.23
8511.61
8021.32
7595.05
7221.24
6890.9
6597.02
6333.96
6097.25
5883.17
5688.73
5511.39
5349.08
5200
5062.67
4935.77
4818.24
4709.07
4607.49
4512.71
4424.16
4341.21
4263.44
4190.33
4121.57
4056.73
3995.57
3937.74
3883.05
3831.21
3782.06
3735.36
3691
3648.76
3608.57
3570.21
3533.66
3498.73
101322
56632.7
38219.6
28648.3
22903.1
19109.7
16432
14447
12919.7
11709.9
10728.8
9917.95
9236.96
8657.27
8158.17
7724.09
7343.35
7006.76
6707.26
6439.07
6197.72
5979.33
5780.99
5599.99
5434.35
5282.11
5141.9
5012.25
4892.2
4780.6
4676.8
4579.87
4489.35
4404.47
4324.95
4250.11
4179.78
4113.38
4050.82
3991.58
3935.63
3882.51
3832.23
3784.38
3739
3695.72
3654.61
3615.32
3577.94
3542.16
102001
57264.9
38734.8
29072.4
23260.8
19418.1
16702.7
14688.2
13137.2
11907.8
10910.4
10085.6
9392.71
8802.63
8294.4
7852.22
7464.25
7121.15
6815.77
6542.23
6295.99
6073.12
5870.65
5685.83
5516.64
5361.09
5217.8
5085.26
4962.5
4848.35
4742.14
4642.93
4550.25
4463.33
4381.84
4305.14
4233.02
4164.91
4100.69
4039.87
3982.39
3927.8
3876.1
3826.87
3780.16
3735.59
3693.21
3652.7
3614.13
3577.18
102516
57747
39128.2
29396
23533.3
19652.5
16907.9
14870.3
13300.6
12055.8
11045.4
10209.6
9507.03
8908.55
8392.89
7944.08
7550.15
7201.66
6891.36
6613.3
6362.89
6136.17
5930.11
5741.94
5569.61
5411.13
5265.06
5129.91
5004.68
4888.2
4779.77
4678.46
4583.77
4494.95
4411.65
4333.23
4259.46
4189.79
4124.08
4061.85
4003.01
3947.14
3894.2
3843.82
3796
3750.38
3707.02
3665.56
3626.09
3588.3
102516
57745.9
39126.2
29393.6
23530.6
19649.7
16905.1
14867.4
13297.7
12052.8
11042.4
10206.4
9503.75
8905.14
8389.34
7940.4
7546.32
7197.67
6887.23
6609.03
6358.48
6131.63
5925.44
5737.15
5564.7
5406.1
5259.93
5124.67
4999.34
4882.77
4774.25
4672.86
4578.1
4489.21
4405.85
4327.38
4253.56
4183.85
4118.11
4055.85
3996.99
3941.11
3888.17
3837.79
3789.98
3744.38
3701.03
3659.6
3620.16
3582.4
102516
57745.1
39124.7
29391.6
23528.5
19647.5
16902.9
14865.3
13295.6
12050.8
11040.4
10204.5
9501.96
8903.4
8387.65
7938.74
7544.7
7196.09
6885.67
6607.5
6356.97
6130.13
5923.95
5735.68
5563.24
5404.65
5258.48
5123.22
4997.89
4881.32
4772.8
4671.4
4576.63
4487.73
4404.36
4325.86
4252.03
4182.31
4116.55
4054.26
3995.39
3939.48
3886.52
3836.11
3788.27
3742.64
3699.26
3657.8
3618.33
3580.54
102516
57744.6
39123.7
29390.2
23526.9
19645.9
16901.3
14863.7
13294
12049.3
11038.9
10203.1
9500.52
8902
8386.27
7937.39
7543.37
7194.77
6884.36
6606.2
6355.68
6128.85
5922.67
5734.39
5561.95
5403.36
5257.18
5121.92
4996.58
4879.99
4771.46
4670.04
4575.26
4486.34
4402.94
4324.43
4250.57
4180.82
4115.03
4052.72
3993.82
3937.88
3884.89
3834.45
3786.58
3740.91
3697.51
3656.01
3616.51
3578.69
102516
57744.3
39123
29389.2
23525.8
19644.7
16900
14862.5
13292.8
12048.1
11037.8
10201.9
9499.37
8900.86
8385.14
7936.27
7542.25
7193.66
6883.26
6605.09
6354.57
6127.73
5921.55
5733.26
5560.81
5402.2
5256.01
5120.73
4995.37
4878.76
4770.21
4668.77
4573.96
4485.01
4401.59
4323.05
4249.17
4179.39
4113.57
4051.23
3992.29
3936.32
3883.29
3832.82
3784.92
3739.22
3695.78
3654.25
3614.72
3576.86
102516
57744.1
39122.6
29388.6
23525
19643.9
16899.2
14861.6
13292
12047.2
11036.9
10201.1
9498.52
8900.01
8384.29
7935.41
7541.38
7192.78
6882.37
6604.19
6353.65
6126.8
5920.6
5732.29
5559.82
5401.19
5254.97
5119.67
4994.29
4877.65
4769.07
4667.6
4572.76
4483.78
4400.33
4321.76
4247.84
4178.03
4112.17
4049.8
3990.82
3934.82
3881.76
3831.25
3783.31
3737.58
3694.1
3652.54
3612.97
3575.08
102516
57744
39122.4
29388.4
23524.7
19643.5
16898.8
14861.2
13291.5
12046.8
11036.4
10200.6
9498.02
8899.49
8383.76
7934.86
7540.81
7192.19
6881.75
6603.55
6352.99
6126.11
5919.88
5731.54
5559.05
5400.38
5254.14
5118.8
4993.38
4876.71
4768.1
4666.59
4571.72
4482.7
4399.21
4320.6
4246.65
4176.8
4110.91
4048.49
3989.48
3933.44
3880.34
3829.8
3781.82
3736.05
3692.54
3650.95
3611.35
3573.42
102516
57744
39122.4
29388.4
23524.8
19643.6
16898.9
14861.3
13291.6
12046.8
11036.5
10200.6
9498
8899.45
8383.68
7934.76
7540.68
7192.03
6881.56
6603.32
6352.72
6125.81
5919.55
5731.17
5558.64
5399.94
5253.65
5118.28
4992.83
4876.12
4767.46
4665.92
4571.01
4481.96
4398.43
4319.78
4245.79
4175.89
4109.97
4047.51
3988.47
3932.38
3879.25
3828.67
3780.66
3734.86
3691.32
3649.69
3610.06
3572.11
102516
57744.2
39122.7
29388.9
23525.4
19644.2
16899.5
14861.9
13292.2
12047.4
11037
10201.1
9498.52
8899.93
8384.13
7935.17
7541.05
7192.36
6881.85
6603.57
6352.94
6125.98
5919.68
5731.27
5558.69
5399.95
5253.63
5118.22
4992.73
4875.98
4767.29
4665.71
4570.76
4481.67
4398.11
4319.42
4245.4
4175.47
4109.51
4047.03
3987.95
3931.84
3878.68
3828.07
3780.03
3734.2
3690.63
3648.98
3609.32
3571.34
102516
57744.4
39123.4
29389.8
23526.4
19645.3
16900.7
14863.1
13293.3
12048.5
11038.1
10202.2
9499.51
8900.87
8385.03
7936.02
7541.86
7193.12
6882.57
6604.25
6353.57
6126.57
5920.23
5731.78
5559.16
5400.39
5254.03
5118.58
4993.05
4876.27
4767.54
4665.92
4570.94
4481.82
4398.22
4319.51
4245.45
4175.49
4109.51
4046.99
3987.89
3931.75
3878.56
3827.93
3779.86
3734.01
3690.42
3648.74
3609.07
3571.07
102516
57744.9
39124.3
29391.1
23528
19647
16902.4
14864.7
13295
12050.1
11039.7
10203.6
9500.94
8902.25
8386.35
7937.28
7543.07
7194.28
6883.67
6605.3
6354.58
6127.54
5921.15
5732.65
5560
5401.18
5254.78
5119.3
4993.73
4876.91
4768.15
4666.5
4571.49
4482.34
4398.71
4319.96
4245.88
4175.9
4109.88
4047.34
3988.21
3932.05
3878.84
3828.18
3780.1
3734.22
3690.61
3648.92
3609.22
3571.2
102516
57745.6
39125.9
29393.2
23530.2
19649.3
16904.7
14867
13297.2
12052.2
11041.7
10205.6
9502.83
8904.06
8388.08
7938.95
7544.67
7195.82
6885.15
6606.73
6355.95
6128.86
5922.42
5733.88
5561.18
5402.32
5255.88
5120.35
4994.75
4877.9
4769.1
4667.42
4572.37
4483.19
4399.53
4320.76
4246.64
4176.63
4110.59
4048.03
3988.87
3932.69
3879.46
3828.78
3780.67
3734.78
3691.15
3649.44
3609.72
3571.69
102516
57746.7
39128.1
29396
23533.3
19652.4
16907.7
14869.9
13300
12054.9
11044.3
10208.1
9505.19
8906.32
8390.25
7941.03
7546.67
7197.74
6887.01
6608.52
6357.68
6130.53
5924.03
5735.44
5562.69
5403.78
5257.3
5121.73
4996.09
4879.19
4770.36
4668.64
4573.56
4484.35
4400.66
4321.86
4247.72
4177.68
4111.61
4049.02
3989.84
3933.64
3880.38
3829.68
3781.56
3735.65
3692
3650.27
3610.54
3572.49
102516
57748.5
39131.4
29400
23537.3
19656.3
16911.5
14873.5
13303.5
12058.2
11047.4
10211.1
9508.05
8909.06
8392.88
7943.55
7549.09
7200.07
6889.26
6610.69
6359.78
6132.56
5926
5737.35
5564.54
5405.58
5259.05
5123.43
4997.74
4880.81
4771.93
4670.18
4575.06
4485.81
4402.09
4323.26
4249.09
4179.02
4112.93
4050.31
3991.11
3934.88
3881.6
3830.88
3782.74
3736.8
3693.14
3651.39
3611.64
3573.58
102517
57751.1
39136
29405.2
23542.4
19661.2
16916.2
14878
13307.6
12062.2
11051.2
10214.6
9511.45
8912.3
8395.98
7946.53
7551.95
7202.83
6891.91
6613.25
6362.25
6134.96
5928.33
5739.61
5566.74
5407.72
5261.13
5125.46
4999.72
4882.74
4773.82
4672.03
4576.87
4487.58
4403.83
4324.96
4250.76
4180.66
4114.54
4051.9
3992.67
3936.41
3883.11
3832.37
3784.2
3738.25
3694.56
3652.79
3613.03
3574.95
102517
57755
39142.2
29411.8
23548.8
19667.3
16921.8
14883.3
13312.6
12066.9
11055.6
10218.8
9515.41
8916.08
8399.59
7949.98
7555.27
7206.02
6894.98
6616.22
6365.12
6137.74
5931.03
5742.23
5569.29
5410.2
5263.55
5127.82
5002.03
4885
4776.03
4674.19
4578.99
4489.66
4405.87
4326.97
4252.73
4182.6
4116.44
4053.77
3994.51
3938.23
3884.91
3834.14
3785.95
3739.97
3696.26
3654.48
3614.69
3576.59
102518
57760.5
39150.3
29420.1
23556.6
19674.5
16928.5
14889.5
13318.4
12072.3
11060.7
10223.6
9519.95
8920.4
8403.71
7953.93
7559.05
7209.66
6898.48
6619.61
6368.39
6140.91
5934.1
5745.22
5572.19
5413.04
5266.31
5130.53
5004.67
4887.59
4778.56
4676.68
4581.42
4492.06
4408.21
4329.28
4254.99
4184.84
4118.64
4055.94
3996.65
3940.34
3886.98
3836.19
3787.97
3741.98
3698.24
3656.44
3616.62
3578.51
102520
57768
39160.4
29429.9
23565.7
19682.8
16936.2
14896.5
13324.9
12078.4
11066.4
10229
9525.05
8925.26
8408.32
7958.35
7563.27
7213.74
6902.4
6623.41
6372.05
6144.48
5937.53
5748.59
5575.44
5416.24
5269.4
5133.58
5007.61
4890.5
4781.38
4679.48
4584.14
4494.76
4410.84
4331.89
4257.53
4187.37
4121.1
4058.41
3999.04
3942.74
3889.32
3838.54
3790.25
3744.27
3700.47
3658.68
3618.81
3580.71
102521
57777.8
39172.5
29441.3
23576
19692.3
16944.8
14904.5
13332.2
12085.2
11072.7
10235
9530.68
8930.62
8413.4
7963.23
7567.92
7218.23
6906.7
6627.59
6376.06
6148.4
5941.3
5752.29
5579.01
5419.76
5272.79
5136.94
5010.86
4893.73
4784.49
4682.58
4587.13
4497.75
4413.73
4334.79
4260.33
4190.19
4123.82
4061.15
4001.69
3945.41
3891.9
3841.15
3792.77
3746.82
3702.94
3661.18
3621.23
3583.17
102524
57789.9
39186.6
29454.2
23587.6
19702.7
16954.2
14913.1
13340.2
12092.5
11079.6
10241.4
9536.78
8936.39
8418.9
7968.48
7572.95
7223.06
6911.35
6632.08
6380.4
6152.61
5945.39
5756.27
5582.88
5423.54
5276.48
5140.55
5014.38
4897.19
4787.88
4685.91
4590.4
4500.97
4416.88
4337.91
4263.39
4193.22
4126.8
4064.1
4004.59
3948.29
3894.72
3843.96
3795.54
3749.58
3705.65
3663.89
3623.89
3585.82
102527
57804.3
39202.2
29468.2
23600.1
19713.9
16964.3
14922.3
13348.6
12100.4
11086.9
10248.3
9543.25
8942.48
8424.75
7974.01
7578.31
7228.14
6916.31
6636.8
6385.04
6157.03
5949.76
5760.44
5587.02
5427.49
5280.43
5144.32
5018.17
4900.8
4791.52
4689.39
4593.92
4504.33
4420.29
4341.16
4266.7
4196.38
4130.02
4067.18
4007.73
3951.3
3897.79
3846.9
3798.54
3752.46
3708.59
3666.71
3626.78
3588.6
102530
57820.7
39219.1
29483
23613.3
19725.6
16974.9
14931.8
13357.5
12108.5
11094.5
10255.3
9550
8948.79
8430.83
7979.71
7583.89
7233.37
6921.49
6641.65
6389.9
6161.56
5954.35
5764.7
5591.39
5431.53
5284.6
5148.17
5022.18
4904.49
4795.39
4692.93
4597.66
4507.74
4423.93
4344.46
4270.24
4199.57
4133.48
4070.28
4011.11
3954.32
3901.11
3849.85
3801.8
3755.35
3711.79
3669.55
3629.92
3591.38
102534
57838.7
39236.8
29498.5
23626.9
19737.8
16985.7
14941.7
13366.4
12116.8
11102.2
10262.7
9556.75
8955.33
8436.9
7985.67
7589.41
7238.87
6926.58
6646.78
6394.64
6166.39
5958.8
5769.28
5595.6
5435.9
5288.61
5152.35
5026.01
4908.51
4799.08
4696.81
4601.22
4511.5
4427.37
4348.11
4273.59
4203.13
4136.73
4073.75
4014.29
3957.71
3904.22
3853.16
3804.85
3758.59
3714.79
3672.73
3632.88
3594.51
102539
57857.9
39254.9
29514.1
23640.6
19750
16996.6
14951.6
13375.4
12125.2
11109.9
10270
9563.45
8961.94
8442.88
7991.72
7594.83
7244.49
6931.55
6652.05
6399.23
6171.39
5963.08
5774.06
5599.61
5440.49
5292.39
5156.78
5029.59
4912.81
4802.48
4701.01
4604.47
4515.6
4430.49
4352.12
4276.59
4207.06
4139.63
4077.61
4017.09
3961.52
3906.94
3856.92
3807.5
3762.3
3717.37
3676.39
3635.4
3598.12
102543
57877.6
39272.9
29529.6
23654.3
19761.9
17007.3
14961.2
13384.3
12133.3
11117.6
10277
9570.29
8968.16
8449.07
7997.32
7600.54
7249.6
6936.87
6656.77
6404.25
6175.78
5967.85
5778.17
5604.18
5444.36
5296.79
5160.46
5033.85
4916.31
4806.62
4704.35
4608.5
4518.81
4434.43
4355.21
4280.45
4210.05
4143.42
4080.51
4020.82
3964.33
3910.61
3859.66
3811.12
3764.98
3720.96
3679.03
3638.96
3600.73
102548
57897.4
39290.5
29544.8
23667.5
19773.6
17017.7
14970.7
13392.9
12141.3
11124.9
10284
9576.73
8974.39
8454.84
8003.02
7605.77
7254.89
6941.68
6661.73
6408.7
6180.49
5972.01
5782.67
5608.08
5448.7
5300.48
5164.65
5037.35
4920.39
4809.95
4708.34
4611.69
4522.72
4437.5
4359.07
4283.43
4213.87
4146.34
4084.34
4023.73
3968.22
3913.59
3863.69
3814.26
3769.28
3724.41
3683.76
3642.94
3606.15
102553
57916.8
39307.4
29559.3
23680.3
19784.7
17027.8
14979.5
13401.3
12148.6
11132.2
10290.3
9583.32
8979.88
8460.87
8007.9
7611.39
7259.3
6946.97
6665.76
6413.74
6184.2
5976.83
5786.13
5612.73
5451.95
5305
5167.75
5041.78
4923.4
4814.38
4711.37
4616.26
4525.99
4442.48
4362.96
4289.31
4219.05
4153.98
4091.91
4034.54
3980.02
3929.87
3882.35
3839.28
3798.78
3762.87
3729.63
3701.27
3675.76
102557
57935.3
39323.3
29573
23692.5
19795.1
17037.4
14987.7
13409.4
12155.4
11139.4
10296
9589.79
8984.78
8466.89
8012.2
7617.07
7263.11
6952.39
6669.21
6418.95
6187.4
5981.92
5789.25
5617.87
5455.32
5310.67
5172.15
5049.09
4930.54
4825.78
4724.82
4637.26
4552.65
4482.09
4415.17
4363.8
4317.39
4289.16
4267.79
4269.65
4282.5
4307.29
4355.44
4421.26
4506.1
4609.07
4729.82
4867.22
5019.56
102561
57952.7
39338.1
29585.8
23703.7
19804.9
17046.3
14995.4
13416.8
12161.8
11146
10301.3
9595.94
8989.24
8472.84
8015.86
7623.04
7266.1
6958.71
6671.83
6426.38
6190.98
5992.77
5797.54
5638.61
5479.89
5358.29
5237.41
5159.81
5089.48
5071.99
5086.94
5136.47
5229.69
5383.56
5584.93
5835.74
6129.13
6458.09
6812.16
7184.38
7563.94
7945.94
8321.19
8686.72
9035.4
9366.95
9677
9966.17
10232.1
102565
57968.5
39351.4
29597.8
23713.8
19814.3
17053.9
15003.5
13422.7
12169.1
11150.4
10308.5
9599.24
8996.57
8475.25
8024.18
7625.74
7278.89
6967.75
6701.41
6467.96
6280.33
6136.2
6061.72
6089.45
6173.82
6380.07
6706.6
7154.03
7689.46
8294.68
8929.57
9578.45
10207.5
10807.7
11357.1
11859.5
12297.9
12674.3
12992.1
13257.5
13474.3
13649
13786.7
13891.8
13970.8
14031.3
14074
14103.8
14120.7
102569
57982.7
39363.6
29608.6
23723.5
19822.5
17061.8
15010
13429.6
12174.4
11157
10312.9
9606.94
9002.85
8493.62
8050.47
7706.76
7424.87
7287.96
7354.47
7545.96
8009.53
8726.47
9638.15
10639
11672.4
12649.5
13543.8
14312.3
14943.7
15439.4
15824.3
16103.4
16300.1
16427
16512.8
16556.3
16573.4
16569.9
16558.4
16533.6
16499.5
16460.3
16416.6
16371.8
16325.9
16279
16230.4
16181
16130.6
102571
57995.9
39372.5
29620.6
23729.4
19832.1
17067
15016.8
13435.1
12180.9
11163.9
10333.4
9650.44
9147.12
8815.27
8884.01
9337.16
10132.2
11484.7
13051.5
14598.2
16012.5
17177.3
18050.7
18683.9
19097
19346.3
19480.3
19539.2
19535.4
19512.9
19463.7
19390.7
19311.5
19226.5
19139
19043.9
18949.9
18855.8
18762.2
18669.7
18577.8
18488.3
18400.3
18316.8
18234.9
18153.5
18073.3
17994.6
17917.9
102573
58009.8
39374.5
29641.9
23721.7
19857.1
17055.8
15035.4
13438.9
12207.7
11305.5
10737.7
10937.5
11654
13420.2
15725.6
18024.8
19974.7
21378.6
22295.2
22814.4
23067.5
23149.3
23130.5
23072.2
22950.9
22818.9
22668.1
22510.8
22349.5
22188
22027.8
21868.5
21716.4
21567.8
21418.5
21272.7
21130
20989.8
20852.1
20717.8
20586.7
20459.6
20336.4
20217.7
20103.8
19993.9
19888.4
19786.7
19689.1
102575
58020.5
39371.4
29673.9
23685.1
19936.7
16970
15204.4
13464
13298.1
13958.3
16060.6
19486.2
22781.1
25159.1
26588
27296.8
27562.3
27550.3
27461.4
27275.4
27039.3
26787.8
26526.3
26265.5
26005.8
25758.5
25507.7
25261.8
25018.7
24780.1
24547.3
24322
24105.2
23899.1
23701.4
23513.2
23334
23162.7
22998.7
22841.4
22690.6
22545.8
22407.1
22274.1
22147.1
22025.4
21909.2
21797.7
21691.2
102578
58020.3
39392
29677.1
23687.6
19996
16996.6
16426.9
17575.9
21195
26322.9
30029.8
32107.9
32924.1
33049.2
32932.1
32652.1
32269.5
31855.5
31439
31044
30641.6
30243.1
29848.3
29463.1
29091.1
28738.4
28403.7
28088.4
27789.7
27505.9
27235.7
26978.8
26734.5
26503.7
26285.1
26078.2
25882.5
25697.6
25522.7
25357
25199.8
25050.4
24908.4
24773.1
24644.4
24521.5
24404.3
24292.3
24185.4
102580
58012.8
39454.3
29572.3
23851.3
20363.5
21327.1
25531.6
33031.8
37586.8
39572.8
39982.5
39791.9
39320.7
38682.1
38026.2
37398.9
36766.1
36131.2
35514.9
34932.9
34387.2
33878.6
33400
32948.6
32522.6
32123.4
31750.6
31402.8
31078.4
30775.5
30492.1
30226.3
29976.3
29741.7
29520.5
29311.9
29115.1
28929.8
28755.2
28590.6
28435.2
28288.2
28149
28016.8
27891.4
27771.6
27657.8
27549.2
27445.9
102575
58055.5
39448.6
29419.6
25715
28432.5
38176.5
45635.4
48542.3
48751.8
48316.1
47378.8
46322.2
45342.5
44328.9
43342.3
42423
41584.1
40808.8
40088.5
39423.1
38809.1
38246.1
37727.9
37250
36807.2
36397.5
36018.4
35665.6
35338.5
35035.3
34753.7
34491.3
34246.4
34017.1
33801.4
33599
33408.6
33229.6
33060.9
32901.9
32751.9
32610
32475.7
32348.3
32227.2
32112.1
32003
31899.1
31800.3
102576
58140.9
38937.6
33181.7
39782.4
52260.4
59376.4
60381.3
59684.7
58080.7
56511.9
54899.1
53313.6
51907.7
50635.4
49475.4
48425.9
47486.9
46646.5
45886.6
45196.3
44565.7
43990.1
43464.2
42984.8
42545.6
42142.8
41771.5
41427.4
41109.7
40815.7
40543.1
40289.4
40053.2
39831.6
39624.7
39431.3
39249.8
39078.9
38917.7
38765.4
38621.4
38484.9
38355.4
38232.3
38115.1
38003.8
37898.1
37797.2
37701
102604
57698.3
43825.8
50989.7
70246
75707.7
75283.8
73110.1
70626.9
67998.4
65640.9
63569.9
61717.6
60109
58712.7
57486.1
56402.4
55441.2
54587.9
53823.8
53135
52510.2
51941.6
51425.1
50956.9
50530.2
50140.3
49781
49451.1
49147.2
48865.5
48603.8
48359.8
48132.3
47918.5
47719.1
47532.4
47356.6
47190.8
47033.9
46885.1
46744
46609.7
46481.9
46360
46243.7
46132.3
46025.6
45923.3
45825.4
102175
60968.7
67155.3
88608.6
96864.1
94960.1
91265.7
86984.7
83311.7
80103.4
77381
75096.8
73153
71490.5
70065.6
68832.9
67757.7
66807.8
65962.6
65205.1
64523.7
63909.8
63354.3
62854.3
62402
61989.9
61612.8
61264.9
60945.6
60650.5
60375.6
60119.3
59879.8
59655.5
59444.7
59245.8
59058
58880.1
58711.4
58551.2
58398.6
58253.3
58114.5
57981.9
57854.8
57733.1
57616
57503.3
57394.6
57289.9
101985
85738.9
111988
125716
123108
116504
110212
104892
100634
97191.6
94367.2
92036.2
90095.1
88445.5
87033.2
85814.1
84753.9
83815.6
82976.1
82219.4
81541.2
80935.6
80389.7
79898.7
79452.8
79044.9
78670
78322.9
77999.8
77697.9
77415.2
77150.8
76903
76669.9
76450.2
76241.5
76042.9
75853.4
75672.6
75500
75334.9
75176.9
75025.3
74879.8
74739.7
74604.9
74474.7
74348.8
74226.9
74108.8
111879
136046
167981
165391
155316
145135
137564
131819
127393
123929
121125
118820