/*--------------------------------*- C++ -*----------------------------------*\
| =========                 |                                                 |
| \\      /  F ield         | OpenFOAM: The Open Source CFD Toolbox           |
|  \\    /   O peration     | Version:  2412                                  |
|   \\  /    A nd           | Website:  www.openfoam.com                      |
|    \\/     M anipulation  |                                                 |
\*---------------------------------------------------------------------------*/
FoamFile
{
    version     2.0;
    format      ascii;
    arch        "LSB;label=32;scalar=64";
    class       volScalarField;
    location    "1500";
    object      p;
}
// * * * * * * * * * * * * * * * * * * * * * * * * * * * * * * * * * * * * * //

dimensions      [0 2 -2 0 0 0 0];

internalField   nonuniform List<scalar> 
18000
(
-125.693
-136.996
-142.079
-142.842
-142.189
-141.734
-142.107
-142.708
-143.278
-143.84
-144.411
-144.985
-145.556
-146.126
-146.694
-147.269
-147.852
-148.44
-149.04
-149.656
-150.287
-150.932
-151.595
-152.281
-152.99
-153.724
-154.484
-155.272
-156.091
-156.945
-157.835
-158.764
-159.733
-160.747
-161.809
-162.922
-164.09
-165.32
-166.619
-167.994
-169.453
-171.009
-172.677
-174.471
-176.435
-178.57
-181.047
-183.708
-187.725
-191.394
-125.641
-136.991
-142.078
-142.842
-142.19
-141.734
-142.108
-142.709
-143.278
-143.841
-144.411
-144.986
-145.556
-146.126
-146.694
-147.269
-147.852
-148.44
-149.04
-149.656
-150.287
-150.932
-151.595
-152.281
-152.99
-153.724
-154.485
-155.272
-156.091
-156.945
-157.835
-158.764
-159.733
-160.747
-161.809
-162.922
-164.09
-165.321
-166.619
-167.994
-169.453
-171.009
-172.677
-174.472
-176.435
-178.571
-181.048
-183.709
-187.725
-191.381
-125.65
-136.987
-142.075
-142.841
-142.191
-141.736
-142.109
-142.709
-143.279
-143.841
-144.412
-144.986
-145.556
-146.126
-146.694
-147.269
-147.852
-148.441
-149.04
-149.656
-150.287
-150.932
-151.595
-152.281
-152.991
-153.724
-154.485
-155.273
-156.091
-156.945
-157.836
-158.764
-159.734
-160.748
-161.809
-162.922
-164.09
-165.321
-166.62
-167.995
-169.454
-171.01
-172.677
-174.472
-176.436
-178.572
-181.049
-183.709
-187.717
-191.352
-125.692
-136.981
-142.071
-142.838
-142.19
-141.735
-142.109
-142.71
-143.279
-143.841
-144.412
-144.986
-145.556
-146.126
-146.695
-147.269
-147.852
-148.441
-149.04
-149.656
-150.287
-150.933
-151.595
-152.281
-152.991
-153.725
-154.485
-155.273
-156.092
-156.946
-157.836
-158.764
-159.734
-160.748
-161.81
-162.922
-164.091
-165.321
-166.62
-167.995
-169.455
-171.01
-172.678
-174.473
-176.437
-178.573
-181.051
-183.711
-187.697
-191.301
-125.743
-136.971
-142.065
-142.831
-142.183
-141.733
-142.108
-142.709
-143.279
-143.841
-144.412
-144.986
-145.557
-146.126
-146.695
-147.27
-147.852
-148.441
-149.041
-149.657
-150.288
-150.933
-151.595
-152.282
-152.991
-153.725
-154.485
-155.273
-156.092
-156.946
-157.837
-158.765
-159.735
-160.749
-161.81
-162.923
-164.092
-165.322
-166.622
-167.996
-169.456
-171.012
-172.68
-174.475
-176.439
-178.574
-181.053
-183.713
-187.666
-191.228
-125.802
-136.956
-142.053
-142.816
-142.171
-141.728
-142.105
-142.707
-143.277
-143.84
-144.411
-144.986
-145.556
-146.126
-146.695
-147.27
-147.852
-148.441
-149.041
-149.657
-150.288
-150.933
-151.596
-152.282
-152.992
-153.726
-154.486
-155.274
-156.093
-156.947
-157.837
-158.766
-159.735
-160.75
-161.811
-162.924
-164.093
-165.324
-166.623
-167.998
-169.458
-171.013
-172.682
-174.477
-176.441
-178.576
-181.054
-183.713
-187.623
-191.134
-125.871
-136.935
-142.037
-142.797
-142.156
-141.721
-142.099
-142.702
-143.274
-143.838
-144.41
-144.984
-145.555
-146.125
-146.694
-147.269
-147.852
-148.441
-149.041
-149.657
-150.288
-150.933
-151.596
-152.282
-152.992
-153.726
-154.486
-155.274
-156.093
-156.948
-157.838
-158.767
-159.736
-160.751
-161.812
-162.925
-164.094
-165.325
-166.624
-167.999
-169.459
-171.015
-172.684
-174.479
-176.443
-178.577
-181.055
-183.712
-187.565
-191.018
-125.953
-136.908
-142.017
-142.775
-142.14
-141.714
-142.092
-142.695
-143.268
-143.833
-144.406
-144.981
-145.553
-146.123
-146.692
-147.268
-147.851
-148.44
-149.04
-149.656
-150.287
-150.933
-151.596
-152.282
-152.992
-153.726
-154.487
-155.275
-156.094
-156.948
-157.839
-158.767
-159.737
-160.751
-161.813
-162.927
-164.095
-165.326
-166.626
-168.001
-169.461
-171.017
-172.685
-174.48
-176.445
-178.578
-181.054
-183.708
-187.493
-190.877
-126.052
-136.876
-141.993
-142.752
-142.126
-141.706
-142.084
-142.688
-143.261
-143.827
-144.4
-144.977
-145.549
-146.12
-146.689
-147.265
-147.849
-148.438
-149.038
-149.655
-150.286
-150.932
-151.595
-152.281
-152.991
-153.726
-154.486
-155.275
-156.094
-156.948
-157.839
-158.768
-159.738
-160.752
-161.814
-162.927
-164.096
-165.327
-166.627
-168.002
-169.462
-171.018
-172.687
-174.481
-176.446
-178.577
-181.051
-183.698
-187.403
-190.71
-126.169
-136.838
-141.964
-142.729
-142.114
-141.7
-142.077
-142.68
-143.253
-143.819
-144.393
-144.97
-145.543
-146.115
-146.685
-147.261
-147.845
-148.435
-149.035
-149.652
-150.284
-150.93
-151.593
-152.28
-152.99
-153.724
-154.485
-155.274
-156.093
-156.948
-157.838
-158.767
-159.737
-160.752
-161.814
-162.927
-164.096
-165.327
-166.627
-168.002
-169.462
-171.018
-172.687
-174.48
-176.444
-178.574
-181.042
-183.683
-187.294
-190.511
-126.308
-136.793
-141.929
-142.702
-142.104
-141.699
-142.07
-142.672
-143.246
-143.811
-144.385
-144.962
-145.536
-146.108
-146.679
-147.255
-147.84
-148.43
-149.031
-149.648
-150.28
-150.926
-151.589
-152.277
-152.987
-153.722
-154.483
-155.272
-156.091
-156.946
-157.836
-158.766
-159.736
-160.75
-161.813
-162.926
-164.095
-165.326
-166.626
-168.001
-169.461
-171.016
-172.685
-174.477
-176.44
-178.567
-181.028
-183.659
-187.164
-190.278
-126.471
-136.742
-141.889
-142.671
-142.093
-141.703
-142.069
-142.666
-143.237
-143.802
-144.378
-144.954
-145.527
-146.1
-146.671
-147.248
-147.833
-148.423
-149.025
-149.642
-150.274
-150.921
-151.585
-152.272
-152.983
-153.718
-154.479
-155.268
-156.087
-156.942
-157.833
-158.762
-159.733
-160.747
-161.81
-162.923
-164.092
-165.323
-166.622
-167.997
-169.457
-171.012
-172.68
-174.471
-176.432
-178.554
-181.005
-183.622
-187.009
-190.009
-126.662
-136.683
-141.841
-142.635
-142.081
-141.708
-142.072
-142.665
-143.232
-143.794
-144.368
-144.945
-145.52
-146.092
-146.663
-147.24
-147.825
-148.416
-149.017
-149.635
-150.267
-150.914
-151.578
-152.266
-152.976
-153.712
-154.473
-155.262
-156.081
-156.937
-157.827
-158.757
-159.727
-160.742
-161.804
-162.917
-164.086
-165.317
-166.616
-167.991
-169.45
-171.004
-172.67
-174.459
-176.417
-178.533
-180.971
-183.568
-186.825
-189.701
-126.883
-136.618
-141.784
-142.593
-142.067
-141.713
-142.076
-142.667
-143.232
-143.792
-144.361
-144.936
-145.51
-146.081
-146.654
-147.232
-147.817
-148.407
-149.008
-149.626
-150.259
-150.906
-151.57
-152.257
-152.968
-153.703
-154.465
-155.254
-156.073
-156.929
-157.82
-158.749
-159.719
-160.734
-161.796
-162.909
-164.077
-165.307
-166.606
-167.98
-169.438
-170.99
-172.655
-174.441
-176.394
-178.502
-180.92
-183.49
-186.605
-189.349
-127.139
-136.547
-141.718
-142.544
-142.049
-141.719
-142.08
-142.669
-143.233
-143.791
-144.36
-144.933
-145.503
-146.072
-146.644
-147.221
-147.805
-148.397
-149
-149.618
-150.251
-150.897
-151.56
-152.248
-152.958
-153.694
-154.456
-155.244
-156.063
-156.919
-157.809
-158.738
-159.708
-160.723
-161.784
-162.897
-164.064
-165.294
-166.592
-167.964
-169.421
-170.971
-172.632
-174.414
-176.36
-178.458
-180.85
-183.386
-186.347
-188.951
-127.433
-136.47
-141.64
-142.488
-142.029
-141.726
-142.086
-142.671
-143.234
-143.79
-144.358
-144.931
-145.5
-146.069
-146.639
-147.213
-147.794
-148.386
-148.989
-149.605
-150.237
-150.885
-151.55
-152.238
-152.949
-153.684
-154.446
-155.234
-156.052
-156.906
-157.796
-158.725
-159.694
-160.708
-161.769
-162.881
-164.047
-165.276
-166.572
-167.943
-169.397
-170.944
-172.601
-174.376
-176.313
-178.397
-180.756
-183.249
-186.046
-188.501
-127.768
-136.39
-141.549
-142.425
-142.005
-141.732
-142.091
-142.673
-143.235
-143.79
-144.357
-144.929
-145.498
-146.066
-146.635
-147.209
-147.791
-148.381
-148.982
-149.596
-150.224
-150.871
-151.537
-152.224
-152.934
-153.668
-154.429
-155.219
-156.039
-156.893
-157.783
-158.711
-159.68
-160.693
-161.753
-162.863
-164.027
-165.253
-166.546
-167.914
-169.365
-170.907
-172.558
-174.325
-176.249
-178.315
-180.631
-183.07
-185.697
-187.992
-128.148
-136.308
-141.443
-142.353
-141.977
-141.739
-142.098
-142.676
-143.236
-143.789
-144.355
-144.926
-145.495
-146.063
-146.632
-147.205
-147.786
-148.376
-148.977
-149.59
-150.219
-150.866
-151.53
-152.214
-152.921
-153.653
-154.411
-155.2
-156.02
-156.874
-157.762
-158.688
-159.656
-160.667
-161.725
-162.835
-163.999
-165.224
-166.515
-167.879
-169.326
-170.862
-172.505
-174.26
-176.167
-178.208
-180.47
-182.841
-185.294
-187.416
-128.576
-136.228
-141.322
-142.272
-141.944
-141.744
-142.105
-142.679
-143.237
-143.788
-144.353
-144.923
-145.491
-146.058
-146.627
-147.2
-147.781
-148.37
-148.971
-149.584
-150.212
-150.858
-151.521
-152.205
-152.912
-153.643
-154.401
-155.189
-156.007
-156.857
-157.742
-158.665
-159.629
-160.637
-161.692
-162.798
-163.96
-165.182
-166.469
-167.828
-169.267
-170.794
-172.426
-174.166
-176.049
-178.059
-180.256
-182.544
-184.82
-186.766
-129.053
-136.154
-141.184
-142.182
-141.907
-141.75
-142.112
-142.681
-143.238
-143.787
-144.35
-144.919
-145.486
-146.053
-146.621
-147.194
-147.774
-148.363
-148.963
-149.576
-150.204
-150.848
-151.511
-152.195
-152.901
-153.631
-154.388
-155.173
-155.99
-156.838
-157.722
-158.644
-159.606
-160.611
-161.663
-162.766
-163.923
-165.139
-166.419
-167.769
-169.198
-170.713
-172.328
-174.046
-175.896
-177.863
-179.98
-182.166
-184.263
-186.035
-129.58
-136.092
-141.027
-142.081
-141.865
-141.754
-142.12
-142.684
-143.238
-143.785
-144.346
-144.914
-145.48
-146.046
-146.613
-147.186
-147.766
-148.354
-148.953
-149.565
-150.192
-150.836
-151.499
-152.181
-152.886
-153.615
-154.37
-155.154
-155.969
-156.815
-157.697
-158.616
-159.575
-160.577
-161.624
-162.722
-163.874
-165.083
-166.355
-167.696
-169.113
-170.613
-172.208
-173.9
-175.71
-177.625
-179.649
-181.717
-183.64
-185.244
-130.156
-136.048
-140.853
-141.969
-141.817
-141.755
-142.127
-142.686
-143.238
-143.783
-144.341
-144.907
-145.472
-146.037
-146.604
-147.176
-147.755
-148.343
-148.941
-149.552
-150.178
-150.821
-151.482
-152.163
-152.866
-153.594
-154.347
-155.129
-155.942
-156.786
-157.664
-158.58
-159.535
-160.532
-161.575
-162.667
-163.811
-165.012
-166.275
-167.603
-169.006
-170.486
-172.056
-173.715
-175.475
-177.326
-179.248
-181.185
-182.945
-184.395
-130.78
-136.029
-140.663
-141.847
-141.765
-141.755
-142.134
-142.688
-143.237
-143.78
-144.336
-144.899
-145.463
-146.027
-146.593
-147.163
-147.741
-148.328
-148.925
-149.536
-150.16
-150.802
-151.461
-152.141
-152.842
-153.567
-154.318
-155.097
-155.906
-156.747
-157.622
-158.533
-159.483
-160.474
-161.511
-162.595
-163.73
-164.92
-166.17
-167.483
-168.866
-170.322
-171.86
-173.478
-175.181
-176.956
-178.769
-180.568
-182.175
-183.489
-131.446
-136.044
-140.459
-141.712
-141.707
-141.751
-142.14
-142.689
-143.235
-143.775
-144.328
-144.89
-145.452
-146.014
-146.578
-147.148
-147.724
-148.31
-148.906
-149.515
-150.138
-150.777
-151.435
-152.112
-152.81
-153.533
-154.281
-155.056
-155.861
-156.697
-157.567
-158.472
-159.416
-160.4
-161.427
-162.501
-163.625
-164.802
-166.035
-167.329
-168.687
-170.114
-171.612
-173.181
-174.815
-176.503
-178.199
-179.856
-181.321
-182.514
-132.148
-136.101
-140.248
-141.567
-141.644
-141.743
-142.145
-142.688
-143.231
-143.769
-144.319
-144.877
-145.437
-145.997
-146.56
-147.128
-147.703
-148.287
-148.881
-149.488
-150.109
-150.746
-151.4
-152.074
-152.77
-153.488
-154.232
-155.003
-155.803
-156.633
-157.496
-158.394
-159.329
-160.303
-161.32
-162.381
-163.49
-164.649
-165.862
-167.131
-168.459
-169.847
-171.298
-172.806
-174.363
-175.952
-177.527
-179.04
-180.372
-181.459
-132.878
-136.206
-140.036
-141.413
-141.577
-141.731
-142.146
-142.685
-143.225
-143.76
-144.307
-144.862
-145.419
-145.977
-146.538
-147.104
-147.677
-148.258
-148.85
-149.454
-150.072
-150.705
-151.357
-152.027
-152.718
-153.432
-154.17
-154.935
-155.728
-156.55
-157.405
-158.293
-159.217
-160.179
-161.182
-162.226
-163.316
-164.453
-165.64
-166.877
-168.167
-169.51
-170.903
-172.341
-173.81
-175.291
-176.74
-178.113
-179.319
-180.311
-133.624
-136.366
-139.834
-141.25
-141.506
-141.715
-142.144
-142.68
-143.217
-143.749
-144.291
-144.843
-145.397
-145.952
-146.51
-147.073
-147.643
-148.221
-148.81
-149.41
-150.024
-150.654
-151.3
-151.965
-152.651
-153.358
-154.09
-154.847
-155.631
-156.443
-157.287
-158.163
-159.073
-160.019
-161.003
-162.027
-163.093
-164.202
-165.356
-166.554
-167.798
-169.085
-170.411
-171.767
-173.138
-174.504
-175.824
-177.061
-178.148
-179.053
-134.374
-136.582
-139.653
-141.083
-141.431
-141.694
-142.138
-142.671
-143.204
-143.733
-144.271
-144.819
-145.368
-145.92
-146.474
-147.034
-147.6
-148.175
-148.759
-149.355
-149.964
-150.588
-151.229
-151.887
-152.565
-153.264
-153.986
-154.733
-155.506
-156.306
-157.135
-157.995
-158.887
-159.813
-160.774
-161.772
-162.807
-163.881
-164.994
-166.145
-167.333
-168.554
-169.801
-171.066
-172.33
-173.574
-174.765
-175.87
-176.845
-177.665
-135.116
-136.854
-139.507
-140.918
-141.354
-141.668
-142.126
-142.657
-143.187
-143.712
-144.246
-144.788
-145.333
-145.879
-146.43
-146.985
-147.546
-148.116
-148.695
-149.285
-149.887
-150.504
-151.137
-151.786
-152.455
-153.143
-153.854
-154.587
-155.345
-156.129
-156.94
-157.779
-158.648
-159.549
-160.481
-161.445
-162.443
-163.474
-164.536
-165.63
-166.751
-167.895
-169.053
-170.216
-171.366
-172.485
-173.546
-174.524
-175.389
-176.126
-135.837
-137.174
-139.407
-140.763
-141.276
-141.639
-142.109
-142.637
-143.163
-143.685
-144.213
-144.749
-145.288
-145.829
-146.373
-146.923
-147.478
-148.041
-148.613
-149.195
-149.789
-150.396
-151.019
-151.657
-152.313
-152.988
-153.683
-154.399
-155.138
-155.901
-156.689
-157.503
-158.343
-159.211
-160.106
-161.029
-161.98
-162.958
-163.961
-164.986
-166.029
-167.084
-168.143
-169.195
-170.224
-171.216
-172.148
-173.002
-173.759
-174.409
-136.525
-137.533
-139.362
-140.625
-141.199
-141.605
-142.084
-142.61
-143.132
-143.649
-144.171
-144.699
-145.231
-145.765
-146.302
-146.844
-147.391
-147.946
-148.508
-149.08
-149.664
-150.259
-150.868
-151.492
-152.132
-152.789
-153.464
-154.159
-154.874
-155.611
-156.369
-157.15
-157.954
-158.781
-159.631
-160.504
-161.398
-162.312
-163.243
-164.188
-165.141
-166.097
-167.047
-167.98
-168.884
-169.746
-170.55
-171.282
-171.931
-172.492
-137.17
-137.918
-139.375
-140.514
-141.126
-141.568
-142.053
-142.573
-143.091
-143.602
-144.116
-144.636
-145.159
-145.684
-146.212
-146.744
-147.282
-147.825
-148.375
-148.935
-149.504
-150.083
-150.675
-151.28
-151.9
-152.534
-153.184
-153.852
-154.537
-155.239
-155.961
-156.701
-157.459
-158.236
-159.031
-159.842
-160.667
-161.506
-162.353
-163.206
-164.058
-164.904
-165.735
-166.543
-167.318
-168.048
-168.723
-169.334
-169.872
-170.335
-137.766
-138.313
-139.445
-140.438
-141.059
-141.528
-142.014
-142.527
-143.037
-143.541
-144.046
-144.556
-145.069
-145.583
-146.099
-146.619
-147.143
-147.672
-148.207
-148.75
-149.301
-149.861
-150.431
-151.012
-151.605
-152.211
-152.83
-153.462
-154.109
-154.77
-155.446
-156.135
-156.838
-157.554
-158.282
-159.019
-159.765
-160.515
-161.267
-162.015
-162.756
-163.483
-164.188
-164.865
-165.506
-166.104
-166.649
-167.138
-167.564
-167.929
-138.303
-138.702
-139.562
-140.399
-141.003
-141.484
-141.967
-142.468
-142.968
-143.462
-143.957
-144.454
-144.953
-145.454
-145.955
-146.46
-146.967
-147.478
-147.993
-148.515
-149.042
-149.576
-150.119
-150.669
-151.229
-151.799
-152.378
-152.967
-153.566
-154.175
-154.794
-155.421
-156.057
-156.699
-157.347
-157.998
-158.649
-159.298
-159.941
-160.574
-161.191
-161.789
-162.362
-162.902
-163.406
-163.867
-164.28
-164.642
-164.949
-165.2
-138.77
-139.061
-139.706
-140.394
-140.957
-141.437
-141.91
-142.396
-142.882
-143.364
-143.846
-144.328
-144.811
-145.295
-145.779
-146.264
-146.751
-147.24
-147.731
-148.226
-148.725
-149.228
-149.737
-150.25
-150.77
-151.295
-151.826
-152.364
-152.906
-153.454
-154.006
-154.562
-155.12
-155.678
-156.235
-156.789
-157.336
-157.875
-158.401
-158.912
-159.402
-159.868
-160.305
-160.71
-161.077
-161.404
-161.688
-161.925
-162.114
-162.256
-139.151
-139.362
-139.847
-140.406
-140.917
-141.381
-141.84
-142.308
-142.778
-143.245
-143.71
-144.175
-144.64
-145.104
-145.567
-146.03
-146.492
-146.954
-147.417
-147.88
-148.345
-148.811
-149.279
-149.748
-150.22
-150.694
-151.169
-151.646
-152.124
-152.601
-153.078
-153.552
-154.023
-154.488
-154.946
-155.395
-155.832
-156.255
-156.66
-157.045
-157.405
-157.739
-158.044
-158.315
-158.55
-158.748
-158.905
-159.021
-159.095
-159.128
-139.438
-139.596
-139.966
-140.422
-140.876
-141.315
-141.754
-142.201
-142.651
-143.099
-143.546
-143.991
-144.434
-144.875
-145.312
-145.748
-146.18
-146.611
-147.038
-147.464
-147.888
-148.31
-148.73
-149.148
-149.564
-149.978
-150.388
-150.795
-151.198
-151.596
-151.987
-152.371
-152.746
-153.11
-153.462
-153.799
-154.119
-154.421
-154.701
-154.958
-155.189
-155.392
-155.564
-155.704
-155.81
-155.881
-155.915
-155.912
-155.872
-155.796
-139.621
-139.744
-140.036
-140.413
-140.814
-141.223
-141.639
-142.064
-142.492
-142.919
-143.345
-143.767
-144.185
-144.599
-145.008
-145.411
-145.81
-146.203
-146.59
-146.972
-147.348
-147.719
-148.084
-148.442
-148.795
-149.14
-149.477
-149.807
-150.127
-150.437
-150.735
-151.022
-151.294
-151.551
-151.791
-152.012
-152.214
-152.393
-152.549
-152.679
-152.783
-152.858
-152.904
-152.918
-152.902
-152.853
-152.771
-152.657
-152.51
-152.332
-139.681
-139.782
-140.026
-140.35
-140.711
-141.092
-141.487
-141.89
-142.296
-142.702
-143.104
-143.501
-143.891
-144.275
-144.65
-145.018
-145.376
-145.726
-146.067
-146.399
-146.721
-147.033
-147.335
-147.627
-147.908
-148.177
-148.434
-148.678
-148.908
-149.124
-149.324
-149.507
-149.672
-149.818
-149.944
-150.048
-150.13
-150.188
-150.222
-150.229
-150.209
-150.162
-150.087
-149.984
-149.851
-149.689
-149.498
-149.279
-149.031
-148.756
-139.589
-139.68
-139.9
-140.198
-140.537
-140.901
-141.279
-141.665
-142.053
-142.437
-142.816
-143.186
-143.547
-143.898
-144.237
-144.564
-144.879
-145.181
-145.47
-145.746
-146.007
-146.255
-146.489
-146.708
-146.911
-147.099
-147.27
-147.423
-147.56
-147.677
-147.775
-147.853
-147.91
-147.946
-147.959
-147.949
-147.915
-147.857
-147.774
-147.665
-147.531
-147.371
-147.184
-146.972
-146.734
-146.471
-146.182
-145.869
-145.532
-145.173
-139.313
-139.406
-139.632
-139.937
-140.28
-140.644
-141.019
-141.398
-141.776
-142.145
-142.505
-142.852
-143.185
-143.504
-143.807
-144.094
-144.365
-144.619
-144.857
-145.076
-145.279
-145.463
-145.629
-145.776
-145.904
-146.013
-146.102
-146.17
-146.217
-146.243
-146.248
-146.229
-146.188
-146.124
-146.037
-145.926
-145.79
-145.631
-145.447
-145.239
-145.007
-144.752
-144.472
-144.17
-143.844
-143.497
-143.128
-142.738
-142.328
-141.9
-138.883
-138.993
-139.258
-139.604
-139.979
-140.362
-140.748
-141.134
-141.511
-141.874
-142.221
-142.551
-142.863
-143.157
-143.43
-143.684
-143.918
-144.132
-144.326
-144.498
-144.65
-144.781
-144.89
-144.978
-145.044
-145.088
-145.11
-145.109
-145.085
-145.037
-144.967
-144.873
-144.755
-144.614
-144.449
-144.26
-144.047
-143.812
-143.553
-143.271
-142.966
-142.64
-142.293
-141.924
-141.536
-141.128
-140.702
-140.258
-139.797
-139.321
-138.355
-138.496
-138.832
-139.253
-139.68
-140.093
-140.501
-140.901
-141.286
-141.65
-141.991
-142.31
-142.607
-142.881
-143.132
-143.361
-143.566
-143.748
-143.908
-144.043
-144.156
-144.245
-144.311
-144.353
-144.372
-144.366
-144.336
-144.283
-144.205
-144.103
-143.977
-143.827
-143.652
-143.454
-143.232
-142.987
-142.719
-142.428
-142.115
-141.781
-141.425
-141.05
-140.654
-140.24
-139.807
-139.357
-138.891
-138.41
-137.914
-137.405
-137.743
-137.935
-138.384
-138.915
-139.406
-139.852
-140.285
-140.708
-141.105
-141.471
-141.809
-142.121
-142.408
-142.668
-142.902
-143.11
-143.293
-143.451
-143.584
-143.691
-143.773
-143.83
-143.862
-143.869
-143.851
-143.808
-143.739
-143.646
-143.527
-143.384
-143.216
-143.024
-142.808
-142.568
-142.304
-142.018
-141.709
-141.378
-141.026
-140.654
-140.261
-139.85
-139.42
-138.973
-138.509
-138.03
-137.536
-137.028
-136.508
-135.976
-137.054
-137.322
-137.94
-138.614
-139.17
-139.644
-140.106
-140.554
-140.964
-141.333
-141.67
-141.978
-142.257
-142.506
-142.727
-142.92
-143.086
-143.224
-143.336
-143.421
-143.48
-143.512
-143.518
-143.498
-143.452
-143.379
-143.281
-143.158
-143.008
-142.834
-142.635
-142.411
-142.163
-141.892
-141.597
-141.28
-140.941
-140.581
-140.2
-139.8
-139.38
-138.943
-138.488
-138.017
-137.531
-137.03
-136.516
-135.989
-135.451
-134.904
-136.286
-136.67
-137.528
-138.373
-138.978
-139.47
-139.963
-140.439
-140.86
-141.231
-141.568
-141.873
-142.146
-142.387
-142.597
-142.778
-142.93
-143.054
-143.149
-143.217
-143.257
-143.27
-143.256
-143.215
-143.147
-143.053
-142.932
-142.785
-142.613
-142.415
-142.192
-141.944
-141.673
-141.378
-141.06
-140.72
-140.358
-139.976
-139.573
-139.152
-138.713
-138.256
-137.783
-137.294
-136.791
-136.275
-135.746
-135.206
-134.655
-134.096
-135.433
-135.99
-137.177
-138.206
-138.83
-139.327
-139.856
-140.359
-140.786
-141.158
-141.495
-141.798
-142.066
-142.3
-142.502
-142.673
-142.815
-142.927
-143.01
-143.064
-143.09
-143.088
-143.058
-143.001
-142.917
-142.805
-142.667
-142.502
-142.312
-142.096
-141.855
-141.589
-141.299
-140.986
-140.651
-140.293
-139.915
-139.516
-139.098
-138.661
-138.206
-137.735
-137.248
-136.747
-136.231
-135.703
-135.164
-134.613
-134.053
-133.485
-134.49
-135.3
-136.914
-138.117
-138.716
-139.211
-139.782
-140.308
-140.736
-141.107
-141.445
-141.747
-142.01
-142.238
-142.434
-142.598
-142.731
-142.833
-142.906
-142.95
-142.965
-142.952
-142.91
-142.84
-142.743
-142.618
-142.466
-142.288
-142.084
-141.854
-141.599
-141.319
-141.016
-140.689
-140.34
-139.97
-139.578
-139.167
-138.736
-138.288
-137.822
-137.34
-136.843
-136.331
-135.807
-135.27
-134.722
-134.164
-133.597
-133.022
-133.451
-134.622
-136.763
-138.101
-138.626
-139.121
-139.737
-140.279
-140.705
-141.074
-141.413
-141.713
-141.973
-142.196
-142.386
-142.544
-142.67
-142.766
-142.831
-142.867
-142.873
-142.85
-142.799
-142.719
-142.612
-142.477
-142.315
-142.126
-141.911
-141.671
-141.405
-141.115
-140.801
-140.464
-140.105
-139.724
-139.323
-138.902
-138.462
-138.004
-137.53
-137.039
-136.534
-136.015
-135.484
-134.94
-134.386
-133.822
-133.25
-132.67
-132.311
-133.984
-136.738
-138.144
-138.551
-139.053
-139.716
-140.267
-140.686
-141.055
-141.394
-141.693
-141.949
-142.168
-142.354
-142.507
-142.628
-142.717
-142.777
-142.806
-142.805
-142.775
-142.716
-142.629
-142.514
-142.371
-142.201
-142.004
-141.781
-141.532
-141.258
-140.96
-140.638
-140.293
-139.926
-139.537
-139.128
-138.7
-138.253
-137.789
-137.307
-136.811
-136.3
-135.775
-135.238
-134.689
-134.13
-133.562
-132.985
-132.402
-131.074
-133.415
-136.841
-138.224
-138.484
-139.007
-139.715
-140.265
-140.676
-141.045
-141.385
-141.682
-141.935
-142.151
-142.333
-142.482
-142.599
-142.684
-142.738
-142.762
-142.756
-142.72
-142.656
-142.563
-142.441
-142.292
-142.116
-141.913
-141.683
-141.428
-141.148
-140.843
-140.514
-140.163
-139.79
-139.396
-138.981
-138.547
-138.094
-137.624
-137.138
-136.637
-136.121
-135.592
-135.05
-134.498
-133.935
-133.364
-132.784
-132.198
-129.745
-132.943
-137.061
-138.323
-138.422
-138.98
-139.726
-140.27
-140.674
-141.043
-141.383
-141.678
-141.928
-142.142
-142.321
-142.466
-142.579
-142.661
-142.711
-142.731
-142.72
-142.68
-142.611
-142.513
-142.387
-142.233
-142.052
-141.844
-141.61
-141.349
-141.064
-140.754
-140.421
-140.065
-139.687
-139.288
-138.869
-138.43
-137.973
-137.499
-137.009
-136.504
-135.984
-135.452
-134.907
-134.352
-133.786
-133.212
-132.63
-132.041
-128.34
-132.59
-137.377
-138.424
-138.366
-138.971
-139.746
-140.279
-140.676
-141.046
-141.386
-141.678
-141.926
-142.138
-142.314
-142.457
-142.567
-142.645
-142.692
-142.709
-142.695
-142.652
-142.579
-142.477
-142.348
-142.19
-142.005
-141.793
-141.554
-141.29
-141.001
-140.688
-140.35
-139.991
-139.609
-139.206
-138.783
-138.341
-137.881
-137.404
-136.911
-136.403
-135.88
-135.345
-134.798
-134.24
-133.673
-133.096
-132.512
-131.922
-126.876
-132.368
-137.763
-138.514
-138.317
-138.975
-139.769
-140.289
-140.681
-141.053
-141.392
-141.682
-141.928
-142.137
-142.312
-142.452
-142.56
-142.636
-142.68
-142.694
-142.678
-142.631
-142.556
-142.451
-142.319
-142.158
-141.97
-141.755
-141.513
-141.246
-140.954
-140.637
-140.297
-139.934
-139.55
-139.144
-138.719
-138.274
-137.811
-137.332
-136.836
-136.325
-135.801
-135.264
-134.715
-134.155
-133.585
-133.007
-132.422
-131.83
-125.376
-132.282
-138.19
-138.588
-138.276
-138.99
-139.793
-140.3
-140.689
-141.061
-141.399
-141.687
-141.932
-142.139
-142.312
-142.451
-142.556
-142.63
-142.673
-142.685
-142.666
-142.617
-142.539
-142.433
-142.298
-142.135
-141.944
-141.727
-141.483
-141.213
-140.918
-140.599
-140.257
-139.892
-139.505
-139.097
-138.669
-138.223
-137.758
-137.276
-136.779
-136.266
-135.74
-135.201
-134.651
-134.089
-133.518
-132.939
-132.352
-131.759
-123.864
-132.325
-138.633
-138.644
-138.246
-139.01
-139.816
-140.311
-140.698
-141.071
-141.407
-141.694
-141.937
-142.143
-142.314
-142.451
-142.555
-142.628
-142.669
-142.679
-142.658
-142.608
-142.528
-142.419
-142.283
-142.118
-141.925
-141.706
-141.46
-141.188
-140.892
-140.571
-140.227
-139.86
-139.471
-139.062
-138.632
-138.184
-137.717
-137.234
-136.735
-136.221
-135.693
-135.153
-134.601
-134.039
-133.467
-132.887
-132.299
-131.705
-122.365
-132.486
-139.068
-138.683
-138.225
-139.034
-139.837
-140.321
-140.708
-141.081
-141.416
-141.701
-141.943
-142.148
-142.318
-142.453
-142.556
-142.627
-142.667
-142.675
-142.653
-142.601
-142.52
-142.41
-142.272
-142.106
-141.912
-141.691
-141.443
-141.17
-140.872
-140.55
-140.204
-139.836
-139.445
-139.034
-138.604
-138.154
-137.686
-137.202
-136.702
-136.187
-135.658
-135.117
-134.564
-134
-133.427
-132.846
-132.258
-131.663
-120.898
-132.745
-139.482
-138.708
-138.213
-139.06
-139.856
-140.331
-140.718
-141.091
-141.425
-141.708
-141.949
-142.153
-142.322
-142.456
-142.558
-142.628
-142.667
-142.674
-142.651
-142.598
-142.515
-142.404
-142.264
-142.097
-141.902
-141.68
-141.431
-141.157
-140.857
-140.534
-140.187
-139.817
-139.426
-139.014
-138.582
-138.131
-137.663
-137.177
-136.676
-136.16
-135.631
-135.088
-134.535
-133.971
-133.397
-132.815
-132.226
-131.631
-119.484
-133.084
-139.862
-138.724
-138.209
-139.084
-139.872
-140.341
-140.727
-141.1
-141.433
-141.716
-141.955
-142.159
-142.326
-142.46
-142.561
-142.63
-142.668
-142.674
-142.65
-142.596
-142.512
-142.4
-142.259
-142.091
-141.895
-141.672
-141.422
-141.147
-140.846
-140.522
-140.174
-139.804
-139.412
-138.998
-138.566
-138.114
-137.645
-137.158
-136.656
-136.139
-135.609
-135.066
-134.512
-133.947
-133.373
-132.791
-132.201
-131.607
-118.137
-133.482
-140.203
-138.733
-138.212
-139.107
-139.886
-140.35
-140.737
-141.109
-141.441
-141.723
-141.961
-142.164
-142.331
-142.463
-142.563
-142.632
-142.669
-142.675
-142.649
-142.595
-142.511
-142.397
-142.256
-142.087
-141.89
-141.666
-141.416
-141.139
-140.838
-140.513
-140.165
-139.793
-139.4
-138.987
-138.553
-138.101
-137.631
-137.144
-136.642
-136.124
-135.594
-135.05
-134.495
-133.93
-133.355
-132.772
-132.181
-131.586
-116.868
-133.918
-140.504
-138.738
-138.219
-139.128
-139.898
-140.359
-140.746
-141.118
-141.449
-141.729
-141.967
-142.169
-142.335
-142.467
-142.567
-142.635
-142.671
-142.676
-142.65
-142.595
-142.51
-142.396
-142.254
-142.084
-141.887
-141.662
-141.411
-141.134
-140.832
-140.507
-140.158
-139.786
-139.392
-138.978
-138.544
-138.091
-137.62
-137.132
-136.629
-136.112
-135.581
-135.037
-134.482
-133.917
-133.342
-132.759
-132.169
-131.575
-115.683
-134.375
-140.765
-138.741
-138.228
-139.146
-139.908
-140.366
-140.754
-141.126
-141.456
-141.735
-141.973
-142.174
-142.339
-142.471
-142.57
-142.637
-142.673
-142.678
-142.651
-142.595
-142.51
-142.395
-142.253
-142.083
-141.885
-141.66
-141.408
-141.13
-140.828
-140.502
-140.152
-139.78
-139.387
-138.972
-138.538
-138.085
-137.613
-137.124
-136.619
-136.1
-135.568
-135.023
-134.466
-133.899
-133.323
-132.738
-132.147
-131.551
-114.587
-134.839
-140.989
-138.744
-138.24
-139.161
-139.917
-140.374
-140.762
-141.133
-141.462
-141.741
-141.978
-142.179
-142.343
-142.474
-142.573
-142.64
-142.676
-142.679
-142.652
-142.596
-142.51
-142.395
-142.252
-142.082
-141.883
-141.658
-141.406
-141.128
-140.824
-140.496
-140.145
-139.772
-139.376
-138.959
-138.524
-138.072
-137.6
-137.112
-136.609
-136.091
-135.559
-135.016
-134.46
-133.895
-133.319
-132.736
-132.145
-131.548
-113.581
-135.297
-141.181
-138.746
-138.253
-139.175
-139.924
-140.38
-140.769
-141.139
-141.468
-141.746
-141.982
-142.183
-142.347
-142.477
-142.576
-142.643
-142.678
-142.681
-142.653
-142.597
-142.511
-142.395
-142.25
-142.078
-141.878
-141.651
-141.399
-141.121
-140.818
-140.492
-140.143
-139.771
-139.377
-138.962
-138.526
-138.072
-137.601
-137.114
-136.61
-136.093
-135.562
-135.018
-134.463
-133.897
-133.321
-132.738
-132.146
-131.547
-112.664
-135.741
-141.343
-138.75
-138.265
-139.186
-139.93
-140.386
-140.775
-141.145
-141.473
-141.75
-141.987
-142.187
-142.35
-142.48
-142.578
-142.645
-142.679
-142.68
-142.651
-142.593
-142.507
-142.392
-142.25
-142.08
-141.882
-141.656
-141.403
-141.125
-140.823
-140.498
-140.149
-139.777
-139.383
-138.968
-138.531
-138.074
-137.602
-137.114
-136.61
-136.092
-135.561
-135.017
-134.462
-133.896
-133.321
-132.737
-132.146
-131.547
-111.831
-136.162
-141.48
-138.754
-138.277
-139.196
-139.936
-140.391
-140.781
-141.15
-141.478
-141.754
-141.99
-142.19
-142.352
-142.48
-142.577
-142.643
-142.679
-142.683
-142.656
-142.599
-142.513
-142.399