/*--------------------------------*- C++ -*----------------------------------*\
| =========                 |                                                 |
| \\      /  F ield         | OpenFOAM: The Open Source CFD Toolbox           |
|  \\    /   O peration     | Version:  2412                                  |
|   \\  /    A nd           | Website:  www.openfoam.com                      |
|    \\/     M anipulation  |                                                 |
\*---------------------------------------------------------------------------*/
FoamFile
{
    version     2.0;
    format      ascii;
    arch        "LSB;label=32;scalar=64";
    class       surfaceScalarField;
    location    "1500";
    object      phi;
}
// * * * * * * * * * * * * * * * * * * * * * * * * * * * * * * * * * * * * * //

dimensions      [0 3 -1 0 0 0 0];

oriented        oriented;

internalField   nonuniform List<scalar> 
35710
(
7.98456e-07
-7.98456e-07
5.13311e-07
2.85145e-07
4.19715e-07
9.3596e-08
4.14011e-07
5.70403e-09
4.56458e-07
-4.24471e-08
4.92046e-07
-3.55877e-08
5.1288e-07
-2.08342e-08
5.26011e-07
-1.31307e-08
5.35041e-07
-9.03007e-09
5.41602e-07
-6.5603e-09
5.46488e-07
-4.8861e-09
5.50307e-07
-3.81881e-09
5.53515e-07
-3.20806e-09
5.56363e-07
-2.84792e-09
5.58974e-07
-2.61118e-09
5.61433e-07
-2.45837e-09
5.63776e-07
-2.34269e-09
5.66064e-07
-2.28775e-09
5.68318e-07
-2.25422e-09
5.70535e-07
-2.21698e-09
5.72728e-07
-2.1933e-09
5.74933e-07
-2.2051e-09
5.77183e-07
-2.25002e-09
5.79455e-07
-2.27154e-09
5.81758e-07
-2.3035e-09
5.84103e-07
-2.34424e-09
5.86474e-07
-2.3715e-09
5.8889e-07
-2.41634e-09
5.91382e-07
-2.49117e-09
5.93946e-07
-2.56438e-09
5.96604e-07
-2.65809e-09
5.99375e-07
-2.77169e-09
6.02265e-07
-2.88977e-09
6.05288e-07
-3.02297e-09
6.08451e-07
-3.16315e-09
6.11793e-07
-3.34291e-09
6.15341e-07
-3.54824e-09
6.19136e-07
-3.79442e-09
6.23194e-07
-4.05886e-09
6.27578e-07
-4.38426e-09
6.32336e-07
-4.75824e-09
6.37533e-07
-5.19689e-09
6.43343e-07
-5.81011e-09
6.49792e-07
-6.4494e-09
6.57588e-07
-7.79574e-09
6.66279e-07
-8.69212e-09
6.79348e-07
-1.30703e-08
6.9548e-07
-1.61364e-08
6.98975e-07
-3.48557e-09
-1.05445e-06
1.75343e-06
2.80954e-06
2.77078e-06
1.82061e-06
1.27407e-06
1.50749e-06
4.06718e-07
1.49388e-06
1.93146e-08
1.64465e-06
-1.9322e-07
1.76772e-06
-1.58652e-07
1.84011e-06
-9.32228e-08
1.88649e-06
-5.95157e-08
1.91844e-06
-4.09749e-08
1.94154e-06
-2.96628e-08
1.95874e-06
-2.20869e-08
1.97218e-06
-1.72598e-08
1.98345e-06
-1.44767e-08
1.99344e-06
-1.28352e-08
2.00255e-06
-1.17228e-08
2.01111e-06
-1.10148e-08
2.01925e-06
-1.04886e-08
2.02717e-06
-1.02074e-08
2.03494e-06
-1.00214e-08
2.04257e-06
-9.84593e-09
2.05011e-06
-9.73053e-09
2.05766e-06
-9.75561e-09
2.06532e-06
-9.91027e-09
2.07304e-06
-9.99291e-09
2.08085e-06
-1.01167e-08
2.08878e-06
-1.02732e-08
2.09678e-06
-1.037e-08
2.10489e-06
-1.05305e-08
2.11322e-06
-1.08161e-08
2.12177e-06
-1.11174e-08
2.13061e-06
-1.14995e-08
2.13981e-06
-1.19649e-08
2.14936e-06
-1.24429e-08
2.15932e-06
-1.29855e-08
2.16971e-06
-1.35546e-08
2.18065e-06
-1.42856e-08
2.19222e-06
-1.5111e-08
2.20453e-06
-1.61126e-08
2.21765e-06
-1.71798e-08
2.23176e-06
-1.84931e-08
2.24699e-06
-1.99883e-08
2.26351e-06
-2.17136e-08
2.28188e-06
-2.41796e-08
2.30198e-06
-2.65463e-08
2.32629e-06
-3.21068e-08
2.35221e-06
-3.4615e-08
2.3923e-06
-5.31619e-08
2.43409e-06
-5.79445e-08
2.51897e-06
-8.834e-08
-1.75847e-06
3.22299e-06
5.1106e-06
5.81649e-06
3.63603e-06
2.74864e-06
3.05339e-06
9.89351e-07
3.02196e-06
5.0748e-08
3.2856e-06
-4.56858e-07
3.49143e-06
-3.64485e-07
3.61223e-06
-2.14023e-07
3.69054e-06
-1.37823e-07
3.74458e-06
-9.50148e-08
3.78366e-06
-6.87466e-08
3.8128e-06
-5.12301e-08
3.83563e-06
-4.00865e-08
3.85479e-06
-3.36309e-08
3.87177e-06
-2.98238e-08
3.88728e-06
-2.72262e-08
3.90185e-06
-2.55892e-08
3.91575e-06
-2.43843e-08
3.92925e-06
-2.37117e-08
3.9425e-06
-2.32651e-08
3.95553e-06
-2.2875e-08
3.96841e-06
-2.2616e-08
3.98131e-06
-2.26509e-08
3.99437e-06
-2.29693e-08
4.00754e-06
-2.31626e-08
4.02086e-06
-2.34422e-08
4.03437e-06
-2.37856e-08
4.048e-06
-2.3994e-08
4.06179e-06
-2.43265e-08
4.07592e-06
-2.49399e-08
4.09042e-06
-2.56163e-08
4.10538e-06
-2.64674e-08
4.12092e-06
-2.75005e-08
4.13704e-06
-2.85601e-08
4.15381e-06
-2.97625e-08
4.17128e-06
-3.10251e-08
4.18963e-06
-3.26323e-08
4.20896e-06
-3.44447e-08
4.22949e-06
-3.66427e-08
4.25131e-06
-3.89964e-08
4.27467e-06
-4.18506e-08
4.29981e-06
-4.51361e-08
4.32689e-06
-4.87956e-08
4.35696e-06
-5.42494e-08
4.38939e-06
-5.8972e-08
4.4287e-06
-7.14176e-08
4.4692e-06
-7.51128e-08
4.53207e-06
-1.16042e-07
4.59225e-06
-1.18132e-07
4.73751e-06
-2.33575e-07
-2.23779e-06
5.21683e-06
7.69441e-06
8.13354e-06
6.00297e-06
4.44009e-06
5.15009e-06
1.84223e-06
5.0275e-06
1.73339e-07
5.28724e-06
-7.16598e-07
5.48238e-06
-5.59628e-07
5.60289e-06
-3.34535e-07
5.68534e-06
-2.20265e-07
5.74384e-06
-1.53518e-07
5.78706e-06
-1.11966e-07
5.81993e-06
-8.40994e-08
5.84612e-06
-6.62799e-08
5.86843e-06
-5.59419e-08
5.8885e-06
-4.98906e-08
5.90707e-06
-4.57973e-08
5.92476e-06
-4.32792e-08
5.94183e-06
-4.14492e-08
5.95857e-06
-4.04517e-08
5.97515e-06
-3.98444e-08
5.99162e-06
-3.93445e-08
6.00803e-06
-3.90295e-08
6.02454e-06
-3.91598e-08
6.04133e-06
-3.97621e-08
6.05837e-06
-4.01981e-08
6.07568e-06
-4.07603e-08
6.0933e-06
-4.14014e-08
6.11112e-06
-4.1818e-08
6.12922e-06
-4.24197e-08
6.14777e-06
-4.34965e-08
6.16687e-06
-4.47078e-08
6.1866e-06
-4.62059e-08
6.2071e-06
-4.79951e-08
6.22838e-06
-4.9844e-08
6.25054e-06
-5.19246e-08
6.27364e-06
-5.41258e-08
6.29788e-06
-5.68647e-08
6.32341e-06
-5.99754e-08
6.35046e-06
-6.36928e-08
6.37921e-06
-6.7751e-08
6.40988e-06
-7.25171e-08
6.44291e-06
-7.81757e-08
6.47826e-06
-8.41412e-08
6.51758e-06
-9.35705e-08
6.55944e-06
-1.00828e-07
6.61015e-06
-1.2213e-07
6.66148e-06
-1.26447e-07
6.73875e-06
-1.93309e-07
6.815e-06
-1.94402e-07
6.97501e-06
-3.93558e-07
-2.57099e-06
7.30821e-06
1.05211e-05
9.69865e-06
8.89321e-06
6.06797e-06
7.84362e-06
2.89181e-06
7.52593e-06
4.91032e-07
7.60829e-06
-7.98963e-07
7.67978e-06
-6.31113e-07
7.74421e-06
-3.98961e-07
7.79918e-06
-2.75238e-07
7.84221e-06
-1.96547e-07
7.8763e-06
-1.46055e-07
7.90374e-06
-1.11542e-07
7.92671e-06
-8.92469e-08
7.94718e-06
-7.64165e-08
7.96636e-06
-6.9066e-08
7.98475e-06
-6.41917e-08
8.00284e-06
-6.13671e-08
8.02076e-06
-5.93663e-08
8.03872e-06
-5.84127e-08
8.05687e-06
-5.79903e-08
8.07522e-06
-5.76976e-08
8.09378e-06
-5.75911e-08
8.11266e-06
-5.80371e-08
8.13204e-06
-5.91462e-08
8.1519e-06
-6.00583e-08
8.17226e-06
-6.11148e-08
8.19307e-06
-6.2216e-08
8.21424e-06
-6.29896e-08
8.23584e-06
-6.4018e-08
8.25809e-06
-6.57479e-08
8.28109e-06
-6.77019e-08
8.30494e-06
-7.00644e-08
8.32976e-06
-7.28137e-08
8.35559e-06
-7.56743e-08
8.38253e-06
-7.88591e-08
8.41067e-06
-8.22639e-08
8.44019e-06
-8.6386e-08
8.47132e-06
-9.11078e-08
8.50426e-06
-9.66352e-08
8.53931e-06
-1.02806e-07
8.57659e-06
-1.09796e-07
8.61679e-06
-1.18369e-07
8.6596e-06
-1.26958e-07
8.70721e-06
-1.41181e-07
8.75765e-06
-1.51265e-07
8.81797e-06
-1.82445e-07
8.87966e-06
-1.88141e-07
8.96647e-06
-2.80129e-07
9.05983e-06
-2.87773e-07
9.22246e-06
-5.56159e-07
-2.82327e-06
9.47474e-06
1.35407e-05
1.06181e-05
1.22081e-05
7.40062e-06
1.10959e-05
4.00396e-06
1.05153e-05
1.07164e-06
1.03105e-05
-5.94125e-07
1.02032e-05
-5.23799e-07
1.01644e-05
-3.60179e-07
1.0158e-05
-2.68835e-07
1.01622e-05
-2.00811e-07
1.01711e-05
-1.5486e-07
1.01816e-05
-1.22082e-07
1.0193e-05
-1.00611e-07
1.02053e-05
-8.87519e-08
1.02187e-05
-8.24287e-08
1.02329e-05
-7.84497e-08
1.02482e-05
-7.66076e-08
1.02642e-05
-7.5437e-08
1.02811e-05
-7.53158e-08
1.02989e-05
-7.57496e-08
1.03174e-05
-7.62545e-08
1.03367e-05
-7.6857e-08
1.03567e-05
-7.80346e-08
1.03776e-05
-8.00264e-08
1.03993e-05
-8.1778e-08
1.04218e-05
-8.36477e-08
1.04451e-05
-8.54368e-08
1.04689e-05
-8.67775e-08
1.04933e-05
-8.84774e-08
1.05187e-05
-9.11406e-08
1.05451e-05
-9.41236e-08
1.05727e-05
-9.76338e-08
1.06015e-05
-1.01584e-07
1.06315e-05
-1.05707e-07
1.06629e-05
-1.10252e-07
1.06958e-05
-1.15165e-07
1.07304e-05
-1.20952e-07
1.07669e-05
-1.27624e-07
1.08055e-05
-1.35265e-07
1.08467e-05
-1.43962e-07
1.08903e-05
-1.53491e-07
1.09374e-05
-1.65467e-07
1.09876e-05
-1.77074e-07
1.1043e-05
-1.96661e-07
1.1102e-05
-2.10247e-07
1.1171e-05
-2.51408e-07
1.12436e-05
-2.60796e-07
1.13379e-05
-3.74354e-07
1.14486e-05
-3.98551e-07
1.16126e-05
-7.20134e-07
-3.02793e-06
1.18173e-05
1.67405e-05
1.10811e-05
1.58192e-05
8.32189e-06
1.48222e-05
5.00096e-06
1.40214e-05
1.87247e-06
1.35046e-05
-7.73012e-08
1.31966e-05
-2.15864e-07
1.30095e-05
-1.73019e-07
1.29008e-05
-1.60193e-07
1.28356e-05
-1.35596e-07
1.27968e-05
-1.1608e-07
1.27741e-05
-9.93344e-08
1.27616e-05
-8.81157e-08
1.27564e-05
-8.36101e-08
1.27567e-05
-8.26444e-08
1.27609e-05
-8.26572e-08
1.27684e-05
-8.4171e-08
1.27787e-05
-8.56632e-08
1.27911e-05
-8.78003e-08
1.28057e-05
-9.02575e-08
1.2822e-05
-9.2565e-08
1.28398e-05
-9.47332e-08
1.28592e-05
-9.73591e-08
1.288e-05
-1.00853e-07
1.29022e-05
-1.04003e-07
1.29257e-05
-1.0717e-07
1.29503e-05
-1.10026e-07
1.29758e-05
-1.12286e-07
1.30024e-05
-1.15048e-07
1.30303e-05
-1.19064e-07
1.30597e-05
-1.23475e-07
1.30905e-05
-1.28504e-07
1.31229e-05
-1.33947e-07
1.31568e-05
-1.39635e-07
1.31924e-05
-1.45861e-07
1.32299e-05
-1.52649e-07
1.32694e-05
-1.60439e-07
1.33112e-05
-1.69451e-07
1.33555e-05
-1.79559e-07
1.34028e-05
-1.91215e-07
1.34529e-05
-2.03639e-07
1.35069e-05
-2.19475e-07
1.35645e-05
-2.3462e-07
1.36278e-05
-2.59975e-07
1.36956e-05
-2.78055e-07
1.37733e-05
-3.29111e-07
1.38576e-05
-3.45046e-07
1.39606e-05
-4.77374e-07
1.40883e-05
-5.26233e-07
1.42572e-05
-8.89022e-07
-3.20502e-06
1.44343e-05
2.01856e-05
1.12851e-05
1.96481e-05
8.8594e-06
1.89374e-05
5.71168e-06
1.8105e-05
2.70481e-06
1.73419e-05
6.85812e-07
1.68156e-05
3.10481e-07
1.64399e-05
2.02641e-07
1.61834e-05
9.63711e-08
1.60093e-05
3.84863e-08
1.58922e-05
1.0264e-09
1.58124e-05
-1.96123e-08
1.57578e-05
-3.34914e-08
1.5721e-05
-4.67986e-08
1.56967e-05
-5.83843e-08
1.56817e-05
-6.76123e-08
1.56741e-05
-7.65345e-08
1.56722e-05
-8.37926e-08
1.5675e-05
-9.05787e-08
1.56817e-05
-9.69982e-08
1.56919e-05
-1.02768e-07
1.57051e-05
-1.07912e-07
1.57209e-05
-1.13159e-07
1.57392e-05
-1.19147e-07
1.57597e-05
-1.24555e-07
1.57824e-05
-1.29824e-07
1.5807e-05
-1.34587e-07
1.58332e-05
-1.38481e-07
1.5861e-05
-1.42892e-07
1.58908e-05
-1.48835e-07
1.59225e-05
-1.55191e-07
1.59562e-05
-1.62202e-07
1.59917e-05
-1.69513e-07
1.60293e-05
-1.77152e-07
1.60689e-05
-1.85471e-07
1.61108e-05
-1.94573e-07
1.61551e-05
-2.04786e-07
1.62023e-05
-2.16585e-07
1.62523e-05
-2.29592e-07
1.63058e-05
-2.44674e-07
1.63626e-05
-2.60424e-07
1.64237e-05
-2.80607e-07
1.6489e-05
-2.99903e-07
1.65605e-05
-3.31511e-07
1.66375e-05
-3.55075e-07
1.67247e-05
-4.16293e-07
1.68208e-05
-4.41102e-07
1.69344e-05
-5.91036e-07
1.70784e-05
-6.70271e-07
1.72556e-05
-1.06612e-06
-3.36688e-06
1.74174e-05
2.40202e-05
1.13646e-05
2.37346e-05
9.145e-06
2.33385e-05
6.10785e-06
2.2728e-05
3.31525e-06
2.19095e-05
1.50438e-06
2.11787e-05
1.04126e-06
2.06176e-05
7.63747e-07
2.01813e-05
5.32618e-07
1.98559e-05
3.63887e-07
1.96215e-05
2.35461e-07
1.94517e-05
1.50148e-07
1.93283e-05
8.99073e-08
1.92385e-05
4.30269e-08
1.91723e-05
7.80872e-09
1.91237e-05
-1.90451e-08
1.90892e-05
-4.20095e-08
1.90655e-05
-6.0023e-08
1.90502e-05
-7.52948e-08
1.9042e-05
-8.88375e-08
1.904e-05
-1.00777e-07
1.90433e-05
-1.11156e-07
1.9051e-05
-1.20873e-07
1.90627e-05
-1.309e-07
1.90781e-05
-1.39909e-07
1.90968e-05
-1.48498e-07
1.91187e-05
-1.56484e-07
1.91435e-05
-1.63355e-07
1.91711e-05
-1.70497e-07
1.92015e-05
-1.79176e-07
1.92344e-05
-1.88167e-07
1.927e-05
-1.97755e-07
1.93079e-05
-2.07436e-07
1.93483e-05
-2.17565e-07
1.93914e-05
-2.28547e-07
1.94374e-05
-2.40523e-07
1.94863e-05
-2.53695e-07
1.95385e-05
-2.68822e-07
1.95942e-05
-2.85274e-07
1.96538e-05
-3.04304e-07
1.97173e-05
-3.23908e-07
1.97857e-05
-3.49008e-07
1.9859e-05
-3.73177e-07
1.99392e-05
-4.11687e-07
2.00258e-05
-4.41743e-07
2.01232e-05
-5.1363e-07
2.02315e-05
-5.494e-07
2.03566e-05
-7.16236e-07
2.05173e-05
-8.30902e-07
2.07049e-05
-1.25375e-06
-3.51998e-06
2.0858e-05
2.84169e-05
1.13746e-05
2.82552e-05
9.30673e-06
2.80443e-05
6.3187e-06
2.77434e-05
3.61613e-06
2.71697e-05
2.07816e-06
2.63801e-05
1.8308e-06
2.5662e-05
1.48181e-06
2.50662e-05
1.12848e-06
2.45691e-05
8.60937e-07
2.41818e-05
6.2282e-07
2.38823e-05
4.49591e-07
2.3655e-05
3.17252e-07
2.34817e-05
2.16329e-07
2.33476e-05
1.4191e-07
2.3244e-05
8.44938e-08
2.31648e-05
3.72129e-08
2.31039e-05
8.65545e-10
2.30575e-05
-2.88957e-08
2.30234e-05
-5.46804e-08
2.29997e-05
-7.71348e-08
2.29848e-05
-9.62567e-08
2.29772e-05
-1.13255e-07
2.2976e-05
-1.29708e-07
2.29806e-05
-1.44436e-07
2.29903e-05
-1.58205e-07
2.30049e-05
-1.71099e-07
2.30242e-05
-1.82676e-07
2.30478e-05
-1.94126e-07
2.30754e-05
-2.06785e-07
2.31067e-05
-2.1946e-07
2.31416e-05
-2.32618e-07
2.31799e-05
-2.45746e-07
2.32217e-05
-2.59372e-07
2.3267e-05
-2.73852e-07
2.33159e-05
-2.89456e-07
2.33685e-05
-3.06306e-07
2.34252e-05
-3.25455e-07
2.3486e-05
-3.46054e-07
2.35513e-05
-3.69633e-07
2.36211e-05
-3.93747e-07
2.36966e-05
-4.24487e-07
2.37779e-05
-4.54424e-07
2.38668e-05
-5.00611e-07
2.39634e-05
-5.38394e-07
2.40714e-05
-6.21563e-07
2.41927e-05
-6.70722e-07
2.43304e-05
-8.53945e-07
2.45082e-05
-1.00875e-06
2.47094e-05
-1.45494e-06
-3.66782e-06
2.48573e-05
3.35331e-05
1.13201e-05
3.34223e-05
9.41751e-06
3.32971e-05
6.44387e-06
3.31328e-05
3.78042e-06
3.28928e-05
2.31819e-06
3.23914e-05
2.33221e-06
3.16656e-05
2.2076e-06
3.09454e-05
1.84867e-06
3.03175e-05
1.48886e-06
2.97806e-05
1.15974e-06
2.93261e-05
9.04023e-07
2.89618e-05
6.81623e-07
2.86678e-05
5.10283e-07
2.84314e-05
3.78306e-07
2.82433e-05
2.72598e-07
2.80934e-05
1.87097e-07
2.79725e-05
1.21836e-07
2.78752e-05
6.83512e-08
2.77983e-05
2.22204e-08
2.77386e-05
-1.74025e-08
2.76927e-05
-5.04299e-08
2.76584e-05
-7.88891e-08
2.76342e-05
-1.05505e-07
2.76191e-05
-1.29336e-07
2.76121e-05
-1.51255e-07
2.76125e-05
-1.71492e-07
2.76197e-05
-1.89816e-07
2.7633e-05
-2.07479e-07
2.76521e-05
-2.25919e-07
2.76766e-05
-2.43896e-07
2.77061e-05
-2.62172e-07
2.77408e-05
-2.80388e-07
2.77804e-05
-2.99039e-07
2.78249e-05
-3.18286e-07
2.78741e-05
-3.38637e-07
2.79279e-05
-3.602e-07
2.79868e-05
-3.84346e-07
2.80508e-05
-4.10039e-07
2.81204e-05
-4.39174e-07
2.81956e-05
-4.68981e-07
2.82775e-05
-5.06357e-07
2.83662e-05
-5.43188e-07
2.84637e-05
-5.98034e-07
2.85703e-05
-6.45014e-07
2.8689e-05
-7.40321e-07
2.88239e-05
-8.056e-07
2.8975e-05
-1.00503e-06
2.91704e-05
-1.20417e-06
2.93884e-05
-1.67294e-06
-3.81375e-06
2.95344e-05
3.95063e-05
1.11931e-05
3.94218e-05
9.50202e-06
3.93392e-05
6.52644e-06
3.9218e-05
3.90156e-06
3.90863e-05
2.4499e-06
3.8915e-05
2.50356e-06
3.85278e-05
2.59475e-06
3.79017e-05
2.47479e-06
3.72096e-05
2.18094e-06
3.65552e-05
1.81421e-06
3.59842e-05
1.47498e-06
3.54861e-05
1.17973e-06
3.50475e-05
9.4894e-07
3.46798e-05
7.45978e-07
3.43755e-05
5.76923e-07
3.41217e-05
4.40886e-07
3.39096e-05
3.3392e-07
3.37346e-05
2.43379e-07
3.35912e-05
1.65538e-07
3.3474e-05
9.98137e-08
3.33777e-05
4.5878e-08
3.32991e-05
-2.83094e-10
3.32366e-05
-4.30298e-08
3.31886e-05
-8.12691e-08
3.31531e-05
-1.15821e-07
3.31287e-05
-1.47065e-07
3.3114e-05
-1.75057e-07
3.3108e-05
-2.015e-07
3.31103e-05
-2.28252e-07
3.31204e-05
-2.53974e-07
3.31378e-05
-2.79616e-07
3.31624e-05
-3.04932e-07
3.31939e-05
-3.30523e-07
3.32319e-05
-3.56349e-07
3.32764e-05
-3.83083e-07
3.3327e-05
-4.10854e-07
3.33841e-05
-4.41396e-07
3.34475e-05
-4.73521e-07
3.3518e-05
-5.09624e-07
3.35958e-05
-5.46764e-07
3.36816e-05
-5.92169e-07
3.37758e-05
-6.37403e-07
3.388e-05
-7.02196e-07
3.39952e-05
-7.60243e-07
3.41237e-05
-8.68787e-07
3.42713e-05
-9.53205e-07
3.44356e-05
-1.16942e-06
3.46489e-05
-1.41745e-06
3.48863e-05
-1.91028e-06
-3.96143e-06
3.5034e-05
4.64771e-05
1.09904e-05
4.64171e-05
9.56206e-06
4.6362e-05
6.58152e-06
4.62614e-05
4.00216e-06
4.61526e-05
2.55873e-06
4.60641e-05
2.59202e-06
4.59416e-05
2.71725e-06
4.56932e-05
2.72323e-06
4.52371e-05
2.63694e-06
4.46209e-05
2.43047e-06
4.3978e-05
2.11783e-06
4.33722e-05
1.78561e-06
4.28288e-05
1.4923e-06
4.23506e-05
1.22415e-06
4.19209e-05
1.00663e-06
4.15384e-05
8.23428e-07
4.12089e-05
6.63386e-07
4.09298e-05
5.22464e-07
4.06918e-05
4.03565e-07
4.04884e-05
3.03253e-07
4.03144e-05
2.19828e-07
4.01675e-05
1.46573e-07
4.00457e-05
7.88362e-08
3.99455e-05
1.89093e-08
3.98639e-05
-3.41774e-08
3.97982e-05
-8.14312e-08
3.97465e-05
-1.23316e-07
3.97074e-05
-1.62443e-07
3.96806e-05
-2.01422e-07
3.96652e-05
-2.38615e-07
3.96606e-05
-2.75006e-07
3.9666e-05
-3.10325e-07
3.96809e-05
-3.45408e-07
3.97047e-05
-3.80188e-07
3.97371e-05
-4.15489e-07
3.97778e-05
-4.51522e-07
3.98268e-05
-4.90396e-07
3.98842e-05
-5.30883e-07
3.99503e-05
-5.75708e-07
4.00255e-05
-6.22001e-07
4.01106e-05
-6.77272e-07
4.02061e-05
-7.32957e-07
4.03134e-05
-8.09444e-07
4.04341e-05
-8.80957e-07
4.05696e-05
-1.00426e-06
4.07274e-05
-1.11107e-06
4.09035e-05
-1.34551e-06
4.11311e-05
-1.64505e-06
4.1385e-05
-2.16409e-06
-4.11227e-06
4.15358e-05
5.46115e-05
1.07122e-05
5.45776e-05
9.59595e-06
5.45466e-05
6.61252e-06
5.44604e-05
4.0883e-06
5.43615e-05
2.65771e-06
5.42889e-05
2.66455e-06
5.42204e-05
2.78576e-06
5.41388e-05
2.80486e-06
5.40008e-05
2.77497e-06
5.37412e-05
2.69001e-06
5.33105e-05
2.54857e-06
5.27535e-05
2.34264e-06
5.21626e-05
2.08315e-06
5.15912e-05
1.79556e-06
5.10656e-05
1.53228e-06
5.05886e-05
1.30037e-06
5.01646e-05
1.08745e-06
4.97819e-05
9.05081e-07
4.9431e-05
7.54467e-07
4.91169e-05
6.17389e-07
4.88415e-05
4.95206e-07
4.86046e-05
3.8348e-07
4.84004e-05
2.83075e-07
4.82238e-05
1.95474e-07
4.80716e-05
1.18031e-07
4.79414e-05
4.87454e-08
4.78312e-05
-1.30438e-08
4.77399e-05
-7.11491e-08
4.76668e-05
-1.28377e-07
4.76105e-05
-1.82258e-07
4.75693e-05
-2.33885e-07
4.75421e-05
-2.83073e-07
4.75277e-05
-3.31013e-07
4.75254e-05
-3.77871e-07
4.75346e-05
-4.24659e-07
4.75548e-05
-4.71818e-07
4.75863e-05
-5.21816e-07
4.76289e-05
-5.7354e-07
4.7683e-05
-6.29763e-07
4.77488e-05
-6.87794e-07
4.78268e-05
-7.55353e-07
4.7918e-05
-8.24127e-07
4.80232e-05
-9.14633e-07
4.81448e-05
-1.00252e-06
4.82833e-05
-1.14282e-06
4.84478e-05
-1.27557e-06
4.86328e-05
-1.53046e-06
4.88693e-05
-1.88164e-06
4.91323e-05
-2.42702e-06
-4.26309e-06
4.92831e-05
6.41065e-05
1.03596e-05
6.4101e-05
9.60146e-06
6.40922e-05
6.62128e-06
6.40195e-05
4.16103e-06
6.39269e-05
2.75029e-06
6.38633e-05
2.72821e-06
6.38076e-05
2.84143e-06
6.37569e-05
2.85552e-06
6.3703e-05
2.82886e-06
6.36319e-05
2.76111e-06
6.35122e-05
2.66834e-06
6.33028e-05
2.55198e-06
6.29708e-05
2.41517e-06
6.25174e-05
2.24895e-06
6.19998e-05
2.04993e-06
6.14689e-05
1.83128e-06
6.09586e-05
1.59775e-06
6.04853e-05
1.37837e-06
6.00508e-05
1.18894e-06
5.96537e-05
1.01452e-06
5.92985e-05
8.50352e-07
5.89794e-05
7.02622e-07
5.86823e-05
5.80147e-07
5.84102e-05
4.67638e-07
5.81657e-05
3.62437e-07
5.79495e-05
2.64946e-07
5.77612e-05
1.75333e-07
5.75999e-05
9.01047e-08
5.74625e-05
8.99105e-09
5.73463e-05
-6.59866e-08
5.72493e-05
-1.36958e-07
5.71704e-05
-2.04124e-07
5.71084e-05
-2.69025e-07
5.70627e-05
-3.32161e-07
5.70326e-05
-3.94565e-07
5.70179e-05
-4.57101e-07
5.70185e-05
-5.22439e-07
5.70345e-05
-5.89553e-07
5.70657e-05
-6.60934e-07
5.71122e-05
-7.34262e-07
5.7174e-05
-8.17245e-07
5.72523e-05
-9.02404e-07
5.73475e-05
-1.00984e-06
5.74627e-05
-1.11765e-06
5.75976e-05
-1.27774e-06
5.77628e-05
-1.44081e-06
5.79511e-05
-1.71879e-06
5.81928e-05
-2.12331e-06
5.84605e-05
-2.69475e-06
-4.41064e-06
5.86081e-05
7.51922e-05
9.93459e-06
7.52196e-05
9.57403e-06
7.52314e-05
6.60954e-06
7.51717e-05
4.22067e-06
7.50845e-05
2.83752e-06
7.50277e-05
2.78496e-06
7.49814e-05
2.88776e-06
7.49413e-05
2.89563e-06
7.49054e-05
2.86479e-06
7.48698e-05
2.79668e-06
7.48319e-05
2.70626e-06
7.47816e-05
2.60227e-06
7.47055e-05
2.49124e-06
7.45803e-05
2.3742e-06
7.43786e-05
2.25163e-06
7.40877e-05
2.12217e-06
7.37061e-05
1.9794e-06
7.32641e-05
1.82036e-06
7.2804e-05
1.64903e-06
7.23481e-05
1.47037e-06
7.19132e-05
1.28528e-06
7.15097e-05
1.10613e-06
7.11376e-05
9.52255e-07
7.07948e-05
8.104e-07
7.04822e-05
6.75027e-07
7.01988e-05
5.48362e-07
6.99467e-05
4.27429e-07
6.97204e-05
3.16395e-07
6.95111e-05
2.1829e-07
6.93207e-05
1.24442e-07
6.91509e-05
3.28207e-08
6.90025e-05
-5.5713e-08
6.88757e-05
-1.42241e-07
6.87705e-05
-2.26928e-07
6.86864e-05
-3.10504e-07
6.86234e-05
-3.941e-07
6.85807e-05
-4.79711e-07
6.85574e-05
-5.66298e-07
6.85528e-05
-6.5634e-07
6.85671e-05
-7.48474e-07
6.86e-05
-8.50202e-07
6.86531e-05
-9.55449e-07
6.87264e-05
-1.08323e-06
6.88241e-05
-1.21527e-06
6.89449e-05
-1.39853e-06
6.91013e-05
-1.59728e-06
6.92841e-05
-1.90154e-06
6.95222e-05
-2.36145e-06
6.97887e-05
-2.96128e-06
-4.55447e-06
6.99326e-05
8.81379e-05
9.4399e-06
8.82033e-05
9.50861e-06
8.82349e-05
6.57794e-06
8.81885e-05
4.26703e-06
8.81063e-05
2.91971e-06
8.80559e-05
2.83544e-06
8.80176e-05
2.92605e-06
8.79863e-05
2.92688e-06
8.796e-05
2.89112e-06
8.79358e-05
2.82086e-06
8.79135e-05
2.72862e-06
8.78927e-05
2.62306e-06
8.78717e-05
2.5122e-06
8.7848e-05
2.39791e-06
8.78147e-05
2.28496e-06
8.77633e-05
2.17358e-06
8.76796e-05
2.06304e-06
8.75493e-05
1.95068e-06
8.7361e-05
1.83737e-06
8.71128e-05
1.7185e-06
8.68024e-05
1.59574e-06
8.64452e-05
1.46334e-06
8.60714e-05
1.32598e-06
8.56971e-05
1.18477e-06
8.53321e-05
1.03999e-06
8.49846e-05
8.95846e-07
8.46611e-05
7.50937e-07
8.43645e-05
6.1298e-07
8.40937e-05
4.89067e-07
8.38472e-05
3.70968e-07
8.36246e-05
2.55403e-07
8.34255e-05
1.43387e-07
8.32505e-05
3.28299e-08
8.30989e-05
-7.53645e-08
8.29716e-05
-1.83198e-07
8.28669e-05
-2.8946e-07
8.27812e-05
-3.9396e-07
8.27129e-05
-4.98003e-07
8.26633e-05
-6.06729e-07
8.26341e-05
-7.19246e-07
8.26262e-05
-8.42387e-07
8.26421e-05
-9.7129e-07
8.26821e-05
-1.1233e-06
8.27512e-05
-1.28431e-06
8.28477e-05
-1.49502e-06
8.29854e-05
-1.73499e-06
8.31539e-05
-2.0701e-06
8.33782e-05
-2.58578e-06
8.36338e-05
-3.21679e-06
-4.69154e-06
8.37709e-05
0.000103257
8.87993e-06
0.000103367
9.39928e-06
0.000103418
6.52636e-06
0.000103386
4.29947e-06
0.000103309
2.9965e-06
0.000103265
2.87994e-06
0.000103234
2.95651e-06
0.000103211
2.94965e-06
0.000103194
2.90832e-06
0.000103179
2.83556e-06
0.000103167
2.7412e-06
0.000103157
2.63343e-06
0.000103148
2.52024e-06
0.000103143
2.4037e-06
0.000103139
2.28856e-06
0.000103137
2.17562e-06
0.000103135
2.06487e-06
0.00010313
1.95545e-06
0.000103119
1.84876e-06
0.000103095
1.74278e-06
0.000103052
1.63885e-06
0.000102981
1.53363e-06
0.000102878
1.42906e-06
0.00010274
1.32298e-06
0.000102564
1.21571e-06
0.000102355
1.10539e-06
0.000102112
9.93442e-07
0.000101849
8.76265e-07
0.000101582
7.56341e-07
0.000101319
6.33647e-07
0.000101065
5.09275e-07
0.000100826
3.82813e-07
0.000100604
2.5476e-07
0.000100402
1.2621e-07
0.000100223
-4.30722e-09
0.000100068
-1.34372e-07
9.99377e-05
-2.63345e-07
9.98307e-05
-3.91034e-07
9.97476e-05
-5.23641e-07
9.96886e-05
-6.60196e-07
9.96544e-05
-8.08229e-07
9.96466e-05
-9.63428e-07
9.9666e-05
-1.1427e-06
9.97172e-05
-1.33559e-06
9.97993e-05
-1.57705e-06
9.9925e-05
-1.86074e-06
0.000100086
-2.23083e-06
0.000100297
-2.797e-06
0.000100541
-3.46099e-06
-4.81735e-06
0.000100667
0.000120918
8.26122e-06
0.000121077
9.23955e-06
0.00012115
6.45375e-06
0.000121132
4.31733e-06
0.000121062
3.06695e-06
0.000121023
2.91841e-06
0.000121001
2.97897e-06
0.000120986
2.96383e-06
0.000120978
2.9163e-06
0.000120973
2.84071e-06
0.00012097
2.7441e-06
0.00012097
2.63409e-06
0.000120972
2.51839e-06
0.000120976
2.39939e-06
0.000120983
2.28134e-06
0.000120993
2.16534e-06
0.000121007
2.05119e-06
0.000121024
1.93861e-06
0.000121044
1.82837e-06
0.000121067
1.71981e-06
0.000121093
1.61309e-06
0.000121119
1.50747e-06
0.000121145
1.40304e-06
0.000121168
1.30003e-06
0.000121186
1.19767e-06
0.000121197
1.09503e-06
0.000121197
9.93212e-07
0.000121184
8.895e-07
0.000121155
7.84565e-07
0.000121111
6.7763e-07
0.000121052
5.69083e-07
0.000120977
4.57556e-07
0.000120888
3.43409e-07
0.000120789
2.25709e-07
0.00012068
1.04246e-07
0.000120568
-2.19444e-08
0.000120459
-1.54452e-07
0.00012036
-2.92714e-07
0.000120276
-4.39243e-07
0.000120209
-5.93148e-07
0.000120162
-7.61479e-07
0.000120139
-9.40459e-07
0.000120142
-1.14586e-06
0.000120178
-1.37094e-06
0.000120245
-1.64426e-06
0.000120357
-1.97238e-06
0.000120506
-2.38029e-06
0.000120699
-2.98987e-06
0.000120925
-3.68677e-06
-4.92962e-06
0.000121037
0.000141547
7.59275e-06
0.000141764
9.02211e-06
0.000141859
6.35946e-06
0.000141857
4.3193e-06
0.000141794
3.12961e-06
0.000141762
2.95043e-06
0.000141748
2.99299e-06
0.000141743
2.96901e-06
0.000141744
2.91475e-06
0.000141749
2.83592e-06
0.000141756
2.73694e-06
0.000141766
2.62462e-06
0.000141778
2.50637e-06
0.000141792
2.38482e-06
0.00014181
2.2638e-06
0.000141831
2.14454e-06
0.000141855
2.02687e-06
0.000141883
1.91061e-06
0.000141915
1.79636e-06
0.000141951
1.68372e-06
0.000141992
1.57259e-06
0.000142036
1.46261e-06
0.000142086
1.35349e-06
0.00014214
1.2459e-06
0.000142199
1.1387e-06
0.000142262
1.03174e-06
0.000142331
9.25087e-07
0.000142402
8.17719e-07
0.000142478
7.08755e-07
0.000142557
5.99026e-07
0.000142638
4.87399e-07
0.000142722
3.73946e-07
0.000142808
2.57773e-07
0.000142895
1.38559e-07
0.000142983
1.56872e-08
0.000143073
-1.11781e-07
0.000143164
-2.45537e-07
0.000143257
-3.85891e-07
0.000143354
-5.35477e-07
0.000143455
-6.94266e-07
0.000143562
-8.68774e-07
0.000143679
-1.05757e-06
0.000143807
-1.27366e-06
0.000143953
-1.51652e-06
0.000144115
-1.8062e-06
0.000144305
-2.16309e-06
0.000144518
-2.59355e-06
0.000144752
-3.22346e-06
0.000144998
-3.93274e-06
-5.05971e-06
0.000145128
0.000165647
6.88604e-06
0.000165929
8.73997e-06
0.000166046
6.24224e-06
0.000166062
4.30392e-06
0.000166009
3.1825e-06
0.000165984
2.97527e-06
0.000165979
2.99786e-06
0.000165984
2.96453e-06
0.000165995
2.90306e-06
0.000166011
2.8206e-06
0.000166028
2.71909e-06
0.000166049
2.60437e-06
0.000166072
2.48352e-06
0.000166097
2.35933e-06
0.000166126
2.23527e-06
0.000166158
2.1126e-06
0.000166193
1.99128e-06
0.000166233
1.87114e-06
0.000166276
1.75271e-06
0.000166324
1.63569e-06
0.000166377
1.5199e-06
0.000166434
1.40511e-06
0.000166497
1.29093e-06
0.000166565
1.17793e-06
0.000166639
1.06512e-06
0.000166718
9.52287e-07
0.000166804
8.39352e-07
0.000166896
7.25553e-07
0.000166995
6.09908e-07
0.000167101
4.93167e-07
0.000167214
3.7425e-07
0.000167335
2.53191e-07
0.000167463
1.29048e-07
0.0001676
1.53745e-09
0.000167746
-1.30203e-07
0.000167901
-2.66933e-07
0.000168066
-4.10539e-07
0.000168242
-5.61409e-07
0.000168429
-7.22234e-07
0.000168628
-8.93595e-07
0.00016884
-1.08114e-06
0.000169068
-1.28577e-06
0.000169312
-1.51723e-06
0.000169576
-1.78092e-06
0.000169859
-2.08863e-06
0.000170167
-2.47077e-06
0.000170493
-2.91991e-06
0.000170823
-3.55362e-06
0.000171149
-4.25859e-06
-5.26893e-06
0.000171358
0.000193804
6.15514e-06
0.000194157
8.38721e-06
0.000194299
6.10014e-06
0.000194333
4.26966e-06
0.000194293
3.22315e-06
0.000194276
2.99175e-06
0.000194281
2.99268e-06
0.000194296
2.94952e-06
0.000194319
2.88046e-06
0.000194346
2.79391e-06
0.000194375
2.68969e-06
0.000194407
2.57248e-06
0.000194442
2.44895e-06
0.000194479
2.32204e-06
0.000194519
2.19482e-06
0.000194563
2.06861e-06
0.000194611
1.94346e-06
0.000194663
1.81924e-06
0.000194719
1.6964e-06
0.00019478
1.57472e-06
0.000194846
1.454e-06
0.000194917
1.33404e-06
0.000194994
1.21445e-06
0.000195076
1.09563e-06
0.000195164
9.76771e-07
0.000195259
8.57565e-07
0.000195361
7.37851e-07
0.000195469
6.16999e-07
0.000195585
4.94075e-07
0.000195709
3.69562e-07
0.00019584
2.42558e-07
0.000195981
1.1291e-07
0.00019613
-2.02338e-08
0.000196289
-1.57304e-07
0.000196458
-2.99196e-07
0.000196637
-4.46749e-07
0.000196829
-6.01763e-07
0.000197032
-7.64986e-07
0.000197249
-9.38897e-07
0.00019748
-1.12485e-06
0.000197727
-1.32751e-06
0.000197991
-1.54984e-06
0.000198272
-1.79872e-06
0.000198575
-2.08395e-06
0.000198897
-2.41097e-06
0.000199242
-2.81489e-06
0.000199602
-3.28055e-06
0.000199956
-3.9079e-06
0.000200297
-4.59871e-06
-5.5032e-06
0.000200531
0.000226705
5.41626e-06
0.000227132
7.96013e-06
0.000227302
5.93028e-06
0.000227357
4.21512e-06
0.000227331
3.24857e-06
0.000227325
2.99825e-06
0.000227341
2.97633e-06
0.000227368
2.92285e-06
0.000227402
2.84596e-06
0.000227442
2.75485e-06
0.000227483
2.64771e-06
0.000227528
2.5279e-06
0.000227575
2.40159e-06
0.000227626
2.27183e-06
0.000227679
2.14135e-06
0.000227736
2.01144e-06
0.000227798
1.88226e-06
0.000227863
1.75373e-06
0.000227933
1.62623e-06
0.000228008
1.49959e-06
0.000228089
1.3736e-06
0.000228175
1.24809e-06
0.000228266
1.12268e-06
0.000228364
9.97598e-07
0.000228469
8.72196e-07
0.000228581
7.46097e-07
0.000228699
6.19061e-07
0.000228826
4.90562e-07
0.00022896
3.5972e-07
0.000229103
2.26766e-07
0.000229255
9.09546e-08
0.000229415
-4.80303e-08
0.000229586
-1.90972e-07
0.000229767
-3.38437e-07
0.000229959
-4.91344e-07
0.000230163
-6.50638e-07
0.00023038
-8.17999e-07
0.000230609
-9.94552e-07
0.000230853
-1.18254e-06
0.000231112
-1.38405e-06
0.000231387
-1.60281e-06
0.000231681
-1.84346e-06
0.000231993
-2.11053e-06
0.000232325
-2.41658e-06
0.000232677
-2.76284e-06
0.000233046
-3.18415e-06
0.000233429
-3.66293e-06
0.000233798
-4.27664e-06
0.000234145
-4.94597e-06
-5.75867e-06
0.0002344
0.000265154
4.68705e-06
0.000265656
7.45832e-06
0.000265857
5.72891e-06
0.000265933
4.13889e-06
0.000265927
3.25541e-06
0.000265932
2.99265e-06
0.000265961
2.94742e-06
0.000266001
2.8832e-06
0.000266048
2.79835e-06
0.000266101
2.70225e-06
0.000266157
2.59192e-06
0.000266215
2.46936e-06
0.000266277
2.34017e-06
0.000266341
2.20742e-06
0.000266409
2.07352e-06
0.000266481
1.93974e-06
0.000266557
1.80632e-06
0.000266637
1.67323e-06
0.000266723
1.54077e-06
0.000266813
1.40884e-06
0.00026691
1.27723e-06
0.000267012
1.14575e-06
0.000267121
1.01405e-06
0.000267236
8.82226e-07
0.000267358
7.4974e-07
0.000267488
6.16175e-07
0.000267626
4.81221e-07
0.000267772
3.44419e-07
0.000267927
2.04958e-07
0.000268091
6.28507e-08
0.000268265
-8.25382e-08
0.000268448
-2.31652e-07
0.000268642
-3.85238e-07
0.000268848
-5.43976e-07
0.000269065
-7.08802e-07
0.000269296
-8.80771e-07
0.000269539
-1.06144e-06
0.000269797
-1.25229e-06
0.00027007
-1.4553e-06
0.000270359
-1.67319e-06
0.000270665
-1.90887e-06