/*--------------------------------*- C++ -*----------------------------------*\
| =========                 |                                                 |
| \\      /  F ield         | OpenFOAM: The Open Source CFD Toolbox           |
|  \\    /   O peration     | Version:  2412                                  |
|   \\  /    A nd           | Website:  www.openfoam.com                      |
|    \\/     M anipulation  |                                                 |
\*---------------------------------------------------------------------------*/
FoamFile
{
    version     2.0;
    format      ascii;
    arch        "LSB;label=32;scalar=64";
    class       volSymmTensorField;
    location    "1500";
    object      turbulenceProperties:devReff;
}
// * * * * * * * * * * * * * * * * * * * * * * * * * * * * * * * * * * * * * //

dimensions      [0 2 -2 0 0 0 0];

internalField   nonuniform List<symmTensor> 
18000
(
(-0.00810519 -3.17036 -0 0.00088835 -0 0.00721684)
(0.00588992 -1.81784 -0 -0.00626181 -0 0.000371897)
(0.0019313 -1.41174 -0 -0.00197808 -0 4.6778e-05)
(7.24257e-05 -1.25216 -0 -1.96792e-05 -0 -5.27465e-05)
(-0.000978889 -1.37944 -0 0.00106239 -0 -8.34968e-05)
(-0.000817749 -1.51797 -0 0.000869691 -0 -5.19422e-05)
(-0.000488014 -1.59818 -0 0.000508887 -0 -2.08727e-05)
(-0.000314054 -1.64798 -0 0.000325667 -0 -1.16133e-05)
(-0.000219394 -1.68122 -0 0.000227199 -0 -7.80529e-06)
(-0.000162609 -1.70482 -0 0.000167784 -0 -5.17558e-06)
(-0.000123811 -1.72237 -0 0.000127349 -0 -3.53753e-06)
(-9.90964e-05 -1.73547 -0 0.000101735 -0 -2.63891e-06)
(-8.51887e-05 -1.74633 -0 8.74391e-05 -0 -2.25038e-06)
(-7.75094e-05 -1.75555 -0 7.94338e-05 -0 -1.92442e-06)
(-7.25919e-05 -1.76414 -0 7.43104e-05 -0 -1.71843e-06)
(-6.99521e-05 -1.7718 -0 7.14852e-05 -0 -1.53308e-06)
(-6.82884e-05 -1.77942 -0 6.96429e-05 -0 -1.35446e-06)
(-6.82068e-05 -1.78637 -0 6.94939e-05 -0 -1.28712e-06)
(-6.86835e-05 -1.79358 -0 6.98851e-05 -0 -1.20158e-06)
(-6.91802e-05 -1.80027 -0 7.02433e-05 -0 -1.06303e-06)
(-7.00859e-05 -1.80724 -0 7.10767e-05 -0 -9.90738e-07)
(-7.2198e-05 -1.81379 -0 7.31581e-05 -0 -9.60149e-07)
(-7.52858e-05 -1.82079 -0 7.62875e-05 -0 -1.0017e-06)
(-7.79124e-05 -1.82754 -0 7.87919e-05 -0 -8.79504e-07)
(-8.08935e-05 -1.83467 -0 8.17502e-05 -0 -8.56685e-07)
(-8.42852e-05 -1.84159 -0 8.51288e-05 -0 -8.43617e-07)
(-8.73409e-05 -1.84893 -0 8.81051e-05 -0 -7.64226e-07)
(-9.11699e-05 -1.85601 -0 9.19309e-05 -0 -7.61069e-07)
(-9.62037e-05 -1.86357 -0 9.70349e-05 -0 -8.31149e-07)
(-0.000101579 -1.87104 -0 0.000102368 -0 -7.89156e-07)
(-0.000107866 -1.87903 -0 0.000108717 -0 -8.5068e-07)
(-0.000115292 -1.88703 -0 0.000116196 -0 -9.03703e-07)
(-0.000123139 -1.89566 -0 0.000124076 -0 -9.36958e-07)
(-0.000132022 -1.90434 -0 0.000133021 -0 -9.98675e-07)
(-0.000141587 -1.91373 -0 0.000142629 -0 -1.04157e-06)
(-0.000153449 -1.92321 -0 0.000154637 -0 -1.18753e-06)
(-0.000166882 -1.93361 -0 0.000168214 -0 -1.33253e-06)
(-0.000183045 -1.94425 -0 0.000184586 -0 -1.5413e-06)
(-0.000200661 -1.95605 -0 0.00020232 -0 -1.65894e-06)
(-0.000222387 -1.9682 -0 0.000224423 -0 -2.03573e-06)
(-0.000247324 -1.98182 -0 0.000249451 -0 -2.12643e-06)
(-0.00027718 -1.99608 -0 0.00028014 -0 -2.95981e-06)
(-0.000318118 -2.01209 -0 0.000320751 -0 -2.63245e-06)
(-0.000361516 -2.0299 -0 0.000367139 -0 -5.62284e-06)
(-0.000453384 -2.04904 -0 0.000455558 -0 -2.17314e-06)
(-0.000506386 -2.07526 -0 0.000523214 -0 -1.68285e-05)
(-0.000842504 -2.09644 -0 0.000831292 -0 1.12114e-05)
(-0.000901405 -2.15415 -0 0.000979337 -0 -7.79312e-05)
(-0.00046933 -2.16789 -0 0.0009041 -0 -0.00043477)
(-0.0680214 -2.25833 -0 0.0679356 -0 8.57948e-05)
(0.0514062 -2.58189 -0 -0.0424557 -0 -0.0089505)
(0.0164657 -1.73341 -0 -0.0160995 -0 -0.000366169)
(0.00544143 -1.38545 -0 -0.00537404 -0 -6.73901e-05)
(0.00017582 -1.24571 -0 -9.22713e-05 -0 -8.35492e-05)
(-0.00286622 -1.36253 -0 0.00293875 -0 -7.25362e-05)
(-0.00238348 -1.47701 -0 0.0024281 -0 -4.46241e-05)
(-0.00144499 -1.54161 -0 0.00146332 -0 -1.83309e-05)
(-0.000948661 -1.58303 -0 0.000958131 -0 -9.47036e-06)
(-0.00066678 -1.61114 -0 0.000673114 -0 -6.33349e-06)
(-0.00049374 -1.63104 -0 0.00049756 -0 -3.81924e-06)
(-0.000376368 -1.64582 -0 0.000378829 -0 -2.46043e-06)
(-0.000301383 -1.65689 -0 0.000302886 -0 -1.50247e-06)
(-0.000258593 -1.66609 -0 0.00025964 -0 -1.04614e-06)
(-0.000234804 -1.6739 -0 0.000235443 -0 -6.38739e-07)
(-0.000219188 -1.68116 -0 0.00021962 -0 -4.31473e-07)
(-0.000210808 -1.68762 -0 0.00021098 -0 -1.72345e-07)
(-0.000205659 -1.69404 -0 0.000205593 -0 6.57307e-08)
(-0.000204717 -1.6999 -0 0.000204522 -0 1.95163e-07)
(-0.00020554 -1.70593 -0 0.000205261 -0 2.78949e-07)
(-0.000206927 -1.71154 -0 0.000206459 -0 4.67716e-07)
(-0.000209474 -1.71737 -0 0.000208868 -0 6.05464e-07)
(-0.000215033 -1.72285 -0 0.000214282 -0 7.50333e-07)
(-0.000223273 -1.72867 -0 0.000222511 -0 7.61528e-07)
(-0.000230784 -1.73426 -0 0.000229809 -0 9.75191e-07)
(-0.000239259 -1.74016 -0 0.000238174 -0 1.08426e-06)
(-0.000248769 -1.74588 -0 0.000247599 -0 1.17018e-06)
(-0.000257247 -1.75192 -0 0.000255944 -0 1.30308e-06)
(-0.00026742 -1.75772 -0 0.000265998 -0 1.42215e-06)
(-0.000280993 -1.76388 -0 0.000279518 -0 1.47467e-06)
(-0.000296045 -1.76994 -0 0.000294342 -0 1.70275e-06)
(-0.000313561 -1.7764 -0 0.000311727 -0 1.83308e-06)
(-0.000334171 -1.78286 -0 0.00033216 -0 2.01165e-06)
(-0.000355863 -1.78979 -0 0.000353694 -0 2.16911e-06)
(-0.000380373 -1.79673 -0 0.000378007 -0 2.36545e-06)
(-0.000406668 -1.80421 -0 0.000404075 -0 2.59313e-06)
(-0.000438965 -1.81172 -0 0.000436115 -0 2.84969e-06)
(-0.000475317 -1.81992 -0 0.000472242 -0 3.07478e-06)
(-0.000519122 -1.82825 -0 0.000515724 -0 3.39792e-06)
(-0.000566789 -1.83743 -0 0.000563034 -0 3.75485e-06)
(-0.000624795 -1.84682 -0 0.000620639 -0 4.15583e-06)
(-0.000691444 -1.85727 -0 0.00068677 -0 4.67356e-06)
(-0.000768383 -1.86813 -0 0.000763311 -0 5.07189e-06)
(-0.000877542 -1.88014 -0 0.000871187 -0 6.35502e-06)
(-0.000980517 -1.89344 -0 0.000974629 -0 5.88733e-06)
(-0.00122852 -1.90724 -0 0.00121717 -0 1.13502e-05)
(-0.00131202 -1.92629 -0 0.00130994 -0 2.07807e-06)
(-0.00219659 -1.94028 -0 0.00215058 -0 4.60102e-05)
(-0.00208013 -1.97856 -0 0.00214565 -0 -6.55247e-05)
(-0.00423407 -1.98319 -0 0.00397824 -0 0.000255827)
(-0.0407908 -2.146 -0 0.040487 -0 0.00030384)
(0.0454325 -1.66783 -0 -0.0457224 -0 0.000289907)
(0.0220188 -1.57366 -0 -0.0220605 -0 4.16538e-05)
(0.00895661 -1.33641 -0 -0.00891433 -0 -4.22834e-05)
(0.000532366 -1.23468 -0 -0.00054085 -0 8.48384e-06)
(-0.00458661 -1.36147 -0 0.00453315 -0 5.34619e-05)
(-0.00388684 -1.46647 -0 0.00384465 -0 4.21899e-05)
(-0.00243776 -1.52311 -0 0.00242775 -0 1.00071e-05)
(-0.00165512 -1.56359 -0 0.00165389 -0 1.22162e-06)
(-0.00118385 -1.59225 -0 0.00118617 -0 -2.32357e-06)
(-0.000885671 -1.61269 -0 0.000888505 -0 -2.83431e-06)
(-0.000681152 -1.62797 -0 0.000683873 -0 -2.7217e-06)
(-0.000549404 -1.6395 -0 0.000551598 -0 -2.19484e-06)
(-0.000473825 -1.6493 -0 0.000475698 -0 -1.87335e-06)
(-0.000431956 -1.65769 -0 0.000433485 -0 -1.52887e-06)
(-0.000404876 -1.66555 -0 0.000406459 -0 -1.58302e-06)
(-0.000390989 -1.67249 -0 0.000392518 -0 -1.52921e-06)
(-0.000383016 -1.67949 -0 0.000384449 -0 -1.43329e-06)
(-0.000382088 -1.68581 -0 0.00038357 -0 -1.4813e-06)
(-0.000384693 -1.69237 -0 0.000386339 -0 -1.64541e-06)
(-0.00038869 -1.69835 -0 0.000390341 -0 -1.65143e-06)
(-0.000394691 -1.7047 -0 0.000396367 -0 -1.67673e-06)
(-0.000405456 -1.71056 -0 0.000407148 -0 -1.69199e-06)
(-0.000421254 -1.71685 -0 0.000423222 -0 -1.96871e-06)
(-0.000436313 -1.72275 -0 0.000438322 -0 -2.00886e-06)
(-0.00045316 -1.72907 -0 0.000455318 -0 -2.1586e-06)
(-0.000471598 -1.73508 -0 0.000473952 -0 -2.35419e-06)
(-0.000488247 -1.74149 -0 0.000490765 -0 -2.51825e-06)
(-0.000507379 -1.74751 -0 0.000510041 -0 -2.66196e-06)
(-0.000532903 -1.75396 -0 0.000535823 -0 -2.91985e-06)
(-0.000561589 -1.76017 -0 0.000564554 -0 -2.96573e-06)
(-0.000594918 -1.76689 -0 0.000598089 -0 -3.17029e-06)
(-0.000633661 -1.77348 -0 0.000637013 -0 -3.35181e-06)
(-0.000674736 -1.78063 -0 0.000678391 -0 -3.65565e-06)
(-0.000720784 -1.78762 -0 0.000724699 -0 -3.91486e-06)
(-0.000770473 -1.79524 -0 0.000774678 -0 -4.20579e-06)
(-0.000830311 -1.80273 -0 0.000834745 -0 -4.43388e-06)
(-0.000898081 -1.811 -0 0.000902968 -0 -4.88722e-06)
(-0.000978716 -1.81918 -0 0.000983897 -0 -5.18104e-06)
(-0.0010679 -1.82833 -0 0.00107365 -0 -5.75385e-06)
(-0.0011733 -1.83739 -0 0.00117936 -0 -6.05328e-06)
(-0.00129762 -1.84765 -0 0.00130456 -0 -6.94098e-06)
(-0.00143341 -1.85784 -0 0.0014406 -0 -7.19523e-06)
(-0.00163737 -1.8694 -0 0.00164564 -0 -8.27047e-06)
(-0.00180619 -1.8814 -0 0.00181498 -0 -8.78439e-06)
(-0.00226662 -1.89456 -0 0.00227361 -0 -6.98408e-06)
(-0.0023568 -1.91032 -0 0.00237281 -0 -1.60128e-05)
(-0.00389893 -1.9249 -0 0.00386771 -0 3.12199e-05)
(-0.0035385 -1.94915 -0 0.00365703 -0 -0.000118532)
(-0.00883398 -1.96192 -0 0.00868912 -0 0.000144867)
(-0.0331859 -2.12302 -0 0.0326233 -0 0.000562595)
(0.031418 -1.03635 -0 -0.0327409 -0 0.00132281)
(0.0222845 -1.31299 -0 -0.0225189 -0 0.000234375)
(0.0117246 -1.24338 -0 -0.011758 -0 3.33678e-05)
(0.00196382 -1.23213 -0 -0.00205267 -0 8.8842e-05)
(-0.00489983 -1.45781 -0 0.00473521 -0 0.000164617)
(-0.00449123 -1.59479 -0 0.00436717 -0 0.000124057)
(-0.00313795 -1.65587 -0 0.0030934 -0 4.45454e-05)
(-0.00232271 -1.70039 -0 0.00230844 -0 1.42695e-05)
(-0.00174152 -1.73114 -0 0.00173881 -0 2.71366e-06)
(-0.00134693 -1.75238 -0 0.00134775 -0 -8.24226e-07)
(-0.00106521 -1.76793 -0 0.0010674 -0 -2.19114e-06)
(-0.000879148 -1.77952 -0 0.000881532 -0 -2.38393e-06)
(-0.000773266 -1.7896 -0 0.000775754 -0 -2.48784e-06)
(-0.000717387 -1.79822 -0 0.000719713 -0 -2.32602e-06)
(-0.000683927 -1.80638 -0 0.000686437 -0 -2.51024e-06)
(-0.000670705 -1.8134 -0 0.000673217 -0 -2.51289e-06)
(-0.000666123 -1.82064 -0 0.000668569 -0 -2.44542e-06)
(-0.000671876 -1.82698 -0 0.000674438 -0 -2.56125e-06)
(-0.000684211 -1.83367 -0 0.00068699 -0 -2.77963e-06)
(-0.000698784 -1.8395 -0 0.000701599 -0 -2.81532e-06)
(-0.000715923 -1.84587 -0 0.000718815 -0 -2.892e-06)
(-0.000739806 -1.85153 -0 0.000742739 -0 -2.93245e-06)
(-0.000772865 -1.85776 -0 0.000776127 -0 -3.26174e-06)
(-0.000805611 -1.86332 -0 0.000808902 -0 -3.29014e-06)
(-0.000841284 -1.86945 -0 0.000844763 -0 -3.47841e-06)
(-0.000878599 -1.87503 -0 0.000882245 -0 -3.6453e-06)
(-0.000913215 -1.88111 -0 0.000916978 -0 -3.76334e-06)
(-0.000951641 -1.88651 -0 0.000955577 -0 -3.93592e-06)
(-0.00100191 -1.89247 -0 0.00100617 -0 -4.25955e-06)
(-0.00105835 -1.89796 -0 0.00106268 -0 -4.33103e-06)
(-0.00112338 -1.90409 -0 0.00112802 -0 -4.64196e-06)
(-0.00119723 -1.90985 -0 0.00120214 -0 -4.91391e-06)
(-0.00127653 -1.91626 -0 0.00128181 -0 -5.2763e-06)
(-0.00136416 -1.92222 -0 0.00136975 -0 -5.58947e-06)
(-0.00145996 -1.92892 -0 0.0014659 -0 -5.93777e-06)
(-0.00157165 -1.93518 -0 0.0015779 -0 -6.25103e-06)
(-0.00169996 -1.94235 -0 0.00170674 -0 -6.77979e-06)
(-0.00184833 -1.94901 -0 0.00185546 -0 -7.1368e-06)
(-0.00201766 -1.95679 -0 0.00202542 -0 -7.75785e-06)
(-0.00220794 -1.96395 -0 0.0022161 -0 -8.15863e-06)
(-0.00244361 -1.97251 -0 0.00245259 -0 -8.97607e-06)
(-0.0026811 -1.98013 -0 0.0026906 -0 -9.49723e-06)
(-0.00306722 -1.98964 -0 0.00307697 -0 -9.74557e-06)
(-0.00334249 -1.99791 -0 0.00335483 -0 -1.23447e-05)
(-0.00418166 -2.00904 -0 0.00418575 -0 -4.09055e-06)
(-0.00429672 -2.01796 -0 0.00432408 -0 -2.73579e-05)
(-0.00681891 -2.03311 -0 0.00676076 -0 5.81517e-05)
(-0.00651508 -2.03777 -0 0.00666592 -0 -0.000150843)
(-0.0144908 -2.06103 -0 0.0147624 -0 -0.000271568)
(-0.0336512 -2.10965 -0 0.0335164 -0 0.000134745)
(0.0180588 -0.619453 -0 -0.0182704 -0 0.000211591)
(0.0186557 -0.992909 -0 -0.0188388 -0 0.00018309)
(0.0129387 -1.08243 -0 -0.0130356 -0 9.68915e-05)
(0.00474104 -1.17958 -0 -0.00486422 -0 0.000123179)
(-0.00164458 -1.4697 -0 0.00155481 -0 8.97646e-05)
(-0.00197347 -1.60918 -0 0.00199219 -0 -1.87254e-05)
(-0.00203524 -1.66862 -0 0.00198677 -0 4.84664e-05)
(-0.0019261 -1.71158 -0 0.00188979 -0 3.63023e-05)
(-0.00162397 -1.73981 -0 0.00160391 -0 2.00618e-05)
(-0.00136609 -1.75861 -0 0.0013535 -0 1.25935e-05)
(-0.00115521 -1.77205 -0 0.00114722 -0 7.98544e-06)
(-0.00100901 -1.78201 -0 0.00100367 -0 5.34174e-06)
(-0.000934433 -1.79102 -0 0.000930807 -0 3.62577e-06)
(-0.000907003 -1.79882 -0 0.000904154 -0 2.84897e-06)
(-0.000899608 -1.80635 -0 0.000897481 -0 2.12655e-06)
(-0.000913387 -1.81273 -0 0.000911502 -0 1.88462e-06)
(-0.000933894 -1.81953 -0 0.000932066 -0 1.82807e-06)
(-0.000964606 -1.82532 -0 0.00096299 -0 1.61626e-06)
(-0.00100391 -1.8316 -0 0.00100247 -0 1.44269e-06)
(-0.00104536 -1.83685 -0 0.00104382 -0 1.54112e-06)
(-0.0010884 -1.84281 -0 0.00108685 -0 1.55496e-06)
(-0.00113853 -1.84793 -0 0.0011369 -0 1.63185e-06)
(-0.00120211 -1.85374 -0 0.00120065 -0 1.46038e-06)
(-0.00126647 -1.85869 -0 0.00126473 -0 1.73859e-06)
(-0.00133443 -1.86434 -0 0.00133255 -0 1.87731e-06)
(-0.00140156 -1.86925 -0 0.00139918 -0 2.38333e-06)
(-0.00146509 -1.87474 -0 0.00146218 -0 2.9164e-06)
(-0.00153514 -1.87937 -0 0.00153214 -0 3.00242e-06)
(-0.00162472 -1.88468 -0 0.00162186 -0 2.86017e-06)
(-0.00172457 -1.88935 -0 0.00172146 -0 3.10974e-06)
(-0.00183813 -1.89479 -0 0.00183503 -0 3.10269e-06)
(-0.00196327 -1.89968 -0 0.00196 -0 3.26625e-06)
(-0.00209869 -1.90529 -0 0.00209526 -0 3.4291e-06)
(-0.00224648 -1.91024 -0 0.00224281 -0 3.6744e-06)
(-0.00241046 -1.91603 -0 0.00240654 -0 3.92055e-06)
(-0.00259576 -1.92115 -0 0.00259152 -0 4.24266e-06)
(-0.00281127 -1.92728 -0 0.00280679 -0 4.47994e-06)
(-0.003053 -1.93263 -0 0.003048 -0 5.00547e-06)
(-0.00333712 -1.93922 -0 0.00333158 -0 5.54228e-06)
(-0.00364167 -1.9448 -0 0.0036355 -0 6.1731e-06)
(-0.00403399 -1.95195 -0 0.00402671 -0 7.27981e-06)
(-0.00440828 -1.95756 -0 0.00440095 -0 7.32367e-06)
(-0.00503971 -1.96547 -0 0.00502808 -0 1.16342e-05)
(-0.00547153 -1.97099 -0 0.00546539 -0 6.13921e-06)
(-0.00674726 -1.98062 -0 0.00671933 -0 2.79241e-05)
(-0.00703684 -1.98488 -0 0.00705151 -0 -1.46723e-05)
(-0.0103736 -2.00003 -0 0.0102507 -0 0.000122869)
(-0.0109993 -1.99409 -0 0.0111644 -0 -0.000165054)
(-0.0199419 -2.01881 -0 0.0202054 -0 -0.00026355)
(-0.0351522 -2.02179 -0 0.0349667 -0 0.000185449)
(0.00915357 -0.363962 -0 -0.00898607 -0 -0.000167497)
(0.0131803 -0.677037 -0 -0.0133274 -0 0.000147071)
(0.0122534 -0.86224 -0 -0.0123157 -0 6.22939e-05)
(0.00836985 -1.09283 -0 -0.00840688 -0 3.70285e-05)
(0.0049495 -1.48682 -0 -0.00492243 -0 -2.70719e-05)
(0.00314677 -1.57457 -0 -0.00303866 -0 -0.000108108)
(0.00140137 -1.6453 -0 -0.00143853 -0 3.71694e-05)
(0.000296532 -1.6977 -0 -0.000345232 -0 4.87008e-05)
(-0.000160366 -1.72974 -0 0.000130603 -0 2.97624e-05)
(-0.000404484 -1.75023 -0 0.000384607 -0 1.98765e-05)
(-0.000526833 -1.76432 -0 0.000513945 -0 1.28876e-05)
(-0.000603873 -1.77436 -0 0.000594723 -0 9.14982e-06)
(-0.000688909 -1.7835 -0 0.000682489 -0 6.41975e-06)
(-0.000780237 -1.79129 -0 0.000775379 -0 4.85779e-06)
(-0.000865921 -1.79882 -0 0.000862247 -0 3.6747e-06)
(-0.00096031 -1.80504 -0 0.000957111 -0 3.19948e-06)
(-0.00104956 -1.81182 -0 0.00104668 -0 2.88272e-06)
(-0.00114118 -1.81738 -0 0.00113882 -0 2.36497e-06)
(-0.00123862 -1.82352 -0 0.00123661 -0 2.00479e-06)
(-0.00133557 -1.82844 -0 0.00133349 -0 2.08074e-06)
(-0.00143051 -1.83421 -0 0.00142849 -0 2.02247e-06)
(-0.00152999 -1.83895 -0 0.00152803 -0 1.96136e-06)
(-0.00164548 -1.84452 -0 0.00164393 -0 1.54746e-06)
(-0.00176239 -1.849 -0 0.00176054 -0 1.84028e-06)
(-0.00188215 -1.85431 -0 0.00188021 -0 1.94712e-06)
(-0.0019943 -1.85867 -0 0.00199172 -0 2.57933e-06)
(-0.00210147 -1.86372 -0 0.00209787 -0 3.60213e-06)
(-0.00222106 -1.86771 -0 0.00221717 -0 3.88911e-06)
(-0.0023709 -1.87255 -0 0.00236736 -0 3.5395e-06)
(-0.00253565 -1.87656 -0 0.00253189 -0 3.7644e-06)
(-0.00271962 -1.88146 -0 0.00271588 -0 3.73962e-06)
(-0.0029153 -1.88562 -0 0.00291125 -0 4.04652e-06)
(-0.00312744 -1.89058 -0 0.00312317 -0 4.26757e-06)
(-0.00335735 -1.89466 -0 0.0033529 -0 4.45174e-06)
(-0.00361568 -1.8997 -0 0.00361101 -0 4.66975e-06)
(-0.00390022 -1.90386 -0 0.0038953 -0 4.921e-06)
(-0.00423326 -1.90915 -0 0.00422819 -0 5.06923e-06)
(-0.00459733 -1.91339 -0 0.00459185 -0 5.48333e-06)
(-0.00503288 -1.91901 -0 0.00502682 -0 6.06293e-06)
(-0.00548435 -1.92328 -0 0.00547785 -0 6.50199e-06)
(-0.00607549 -1.92928 -0 0.00606759 -0 7.89987e-06)
(-0.00663364 -1.93324 -0 0.00662648 -0 7.15533e-06)
(-0.0075516 -1.93986 -0 0.00753909 -0 1.25104e-05)
(-0.00823301 -1.94336 -0 0.00822799 -0 5.01094e-06)
(-0.00992913 -1.95152 -0 0.00990526 -0 2.38689e-05)
(-0.0106791 -1.95298 -0 0.0106999 -0 -2.07333e-05)
(-0.0145038 -1.96633 -0 0.0144048 -0 9.89768e-05)
(-0.0169218 -1.9574 -0 0.0171296 -0 -0.000207795)
(-0.0258365 -1.97777 -0 0.0261722 -0 -0.000335687)
(-0.0368456 -1.9661 -0 0.0364774 -0 0.00036815)
(0.0041685 -0.225506 -0 -0.00398089 -0 -0.000187618)
(0.00774556 -0.420789 -0 -0.00789275 -0 0.000147186)
(0.00954771 -0.606225 -0 -0.00952068 -0 -2.70279e-05)
(0.0101329 -0.85999 -0 -0.0100465 -0 -8.63826e-05)
(0.0116576 -1.30447 -0 -0.0115239 -0 -0.000133726)
(0.00896544 -1.45386 -0 -0.00898207 -0 1.66334e-05)
(0.00664935 -1.56879 -0 -0.00666605 -0 1.66953e-05)
(0.00459426 -1.64848 -0 -0.00464066 -0 4.64045e-05)
(0.00314431 -1.69477 -0 -0.00318028 -0 3.59692e-05)
(0.00206249 -1.7236 -0 -0.00208754 -0 2.50517e-05)
(0.00130765 -1.74257 -0 -0.00132339 -0 1.57395e-05)
(0.000767735 -1.75554 -0 -0.000779756 -0 1.20207e-05)
(0.000337369 -1.76681 -0 -0.000345391 -0 8.02183e-06)
(-8.97262e-06 -1.77599 -0 2.8336e-06 -0 6.13903e-06)
(-0.000290899 -1.78453 -0 0.000285923 -0 4.97612e-06)
(-0.000550807 -1.79143 -0 0.000546454 -0 4.35365e-06)
(-0.000778242 -1.79886 -0 0.000774517 -0 3.72518e-06)
(-0.000987239 -1.80472 -0 0.000984217 -0 3.02257e-06)
(-0.00119002 -1.81118 -0 0.00118738 -0 2.64128e-06)
(-0.00138564 -1.81615 -0 0.0013829 -0 2.73727e-06)
(-0.00157181 -1.8221 -0 0.00156926 -0 2.55326e-06)
(-0.00175562 -1.82675 -0 0.00175331 -0 2.31615e-06)
(-0.00195354 -1.83234 -0 0.0019519 -0 1.64549e-06)
(-0.00215095 -1.8366 -0 0.00214893 -0 2.02345e-06)
(-0.00234895 -1.84181 -0 0.0023478 -0 1.149e-06)
(-0.00253227 -1.84584 -0 0.0025339 -0 -1.6281e-06)
(-0.00270754 -1.85076 -0 0.00270986 -0 -2.31659e-06)
(-0.00290118 -1.85443 -0 0.00290239 -0 -1.21594e-06)
(-0.00313723 -1.85909 -0 0.00313822 -0 -9.82207e-07)
(-0.00339158 -1.86272 -0 0.00339173 -0 -1.47941e-07)
(-0.00366892 -1.86736 -0 0.00366853 -0 3.90379e-07)
(-0.0039533 -1.87102 -0 0.003952 -0 1.29773e-06)
(-0.00426162 -1.87557 -0 0.00425967 -0 1.95233e-06)
(-0.00459583 -1.87905 -0 0.00459346 -0 2.3685e-06)
(-0.00497384 -1.88361 -0 0.00497087 -0 2.96971e-06)
(-0.00538247 -1.88707 -0 0.00537905 -0 3.4128e-06)
(-0.00586031 -1.89179 -0 0.00585649 -0 3.82493e-06)
(-0.00637363 -1.89522 -0 0.00636934 -0 4.28854e-06)
(-0.00698955 -1.90016 -0 0.00698447 -0 5.08068e-06)
(-0.00761675 -1.90345 -0 0.00761147 -0 5.28548e-06)
(-0.00843411 -1.9086 -0 0.00842768 -0 6.4312e-06)
(-0.00922462 -1.91142 -0 0.00921825 -0 6.37578e-06)
(-0.010442 -1.91698 -0 0.0104329 -0 9.15415e-06)
(-0.0114701 -1.91929 -0 0.0114642 -0 5.95551e-06)
(-0.0135621 -1.92593 -0 0.01354 -0 2.21588e-05)
(-0.014996 -1.92464 -0 0.0150122 -0 -1.61964e-05)
(-0.0192064 -1.93655 -0 0.0190838 -0 0.00012252)
(-0.023568 -1.91833 -0 0.0238379 -0 -0.000269911)
(-0.0322708 -1.94192 -0 0.0326331 -0 -0.000362329)
(-0.0381524 -1.90839 -0 0.0375221 -0 0.000630299)
(0.00181595 -0.159908 -0 -0.00163364 -0 -0.000182303)
(0.00371921 -0.252113 -0 -0.00388863 -0 0.000169417)
(0.00569947 -0.371678 -0 -0.00568465 -0 -1.48193e-05)
(0.0084419 -0.565099 -0 -0.0083231 -0 -0.000118807)
(0.0140307 -0.999286 -0 -0.0139641 -0 -6.65992e-05)
(0.0135926 -1.24897 -0 -0.0136665 -0 7.38906e-05)
(0.0120271 -1.41511 -0 -0.0119599 -0 -6.71299e-05)
(0.0100795 -1.54123 -0 -0.0100671 -0 -1.24043e-05)
(0.00806151 -1.61752 -0 -0.00809436 -0 3.28588e-05)
(0.00614379 -1.66654 -0 -0.00617371 -0 2.99177e-05)
(0.00462315 -1.69819 -0 -0.00464801 -0 2.48639e-05)
(0.00343788 -1.71953 -0 -0.00345655 -0 1.86721e-05)
(0.00248413 -1.73673 -0 -0.00249471 -0 1.05782e-05)
(0.00174131 -1.74989 -0 -0.00175005 -0 8.733e-06)
(0.00114401 -1.76136 -0 -0.00115102 -0 7.00526e-06)
(0.000611969 -1.77047 -0 -0.00061723 -0 5.26164e-06)
(0.000159322 -1.77973 -0 -0.000163621 -0 4.29838e-06)
(-0.000237802 -1.78681 -0 0.000233953 -0 3.84888e-06)
(-0.000606642 -1.79435 -0 0.000603033 -0 3.60911e-06)
(-0.000958124 -1.80005 -0 0.000954542 -0 3.58204e-06)
(-0.00128758 -1.80676 -0 0.00128452 -0 3.06547e-06)
(-0.0016015 -1.81183 -0 0.0015988 -0 2.69936e-06)
(-0.00192061 -1.81786 -0 0.00191861 -0 1.99749e-06)
(-0.00223319 -1.82227 -0 0.00223067 -0 2.51689e-06)
(-0.0025458 -1.82772 -0 0.0025432 -0 2.60008e-06)
(-0.0028512 -1.83128 -0 0.00285042 -0 7.73956e-07)
(-0.00314226 -1.83516 -0 0.00314605 -0 -3.78743e-06)
(-0.00344372 -1.83801 -0 0.0034505 -0 -6.77806e-06)
(-0.00379242 -1.8421 -0 0.00379931 -0 -6.8949e-06)
(-0.00415896 -1.84509 -0 0.00416499 -0 -6.02808e-06)
(-0.00454855 -1.84919 -0 0.00455392 -0 -5.37614e-06)
(-0.00493699 -1.85212 -0 0.00494066 -0 -3.66783e-06)
(-0.00535798 -1.8559 -0 0.00536046 -0 -2.47646e-06)
(-0.00581619 -1.85858 -0 0.00581827 -0 -2.07967e-06)
(-0.0063327 -1.86242 -0 0.00633428 -0 -1.57517e-06)
(-0.00688504 -1.86514 -0 0.00688631 -0 -1.26559e-06)
(-0.00752529 -1.86909 -0 0.00752637 -0 -1.08285e-06)
(-0.00820857 -1.87175 -0 0.00820938 -0 -8.07352e-07)
(-0.0090186 -1.87584 -0 0.00901837 -0 2.27242e-07)
(-0.00984115 -1.8782 -0 0.00984033 -0 8.15949e-07)
(-0.0108948 -1.88221 -0 0.0108933 -0 1.48239e-06)
(-0.0119485 -1.88396 -0 0.0119477 -0 7.85645e-07)
(-0.0134731 -1.88836 -0 0.0134694 -0 3.66357e-06)
(-0.0148802 -1.88904 -0 0.0148836 -0 -3.41072e-06)
(-0.0173864 -1.89523 -0 0.0173605 -0 2.58503e-05)
(-0.0195331 -1.8918 -0 0.0195728 -0 -3.9666e-05)
(-0.0242319 -1.90475 -0 0.024052 -0 0.000179971)
(-0.0304386 -1.88645 -0 0.0308095 -0 -0.000370923)
(-0.0387815 -1.90437 -0 0.0391776 -0 -0.000396099)
(-0.0399219 -1.87328 -0 0.0390093 -0 0.000912599)
(0.00086636 -0.129539 -0 -0.000671045 -0 -0.000195314)
(0.00148936 -0.161868 -0 -0.00168281 -0 0.000193452)
(0.00268846 -0.221625 -0 -0.0027168 -0 2.83439e-05)
(0.0047382 -0.311951 -0 -0.00466036 -0 -7.78442e-05)
(0.00981245 -0.576993 -0 -0.00972903 -0 -8.34236e-05)
(0.0154731 -0.986112 -0 -0.0154887 -0 1.55945e-05)
(0.0152405 -1.17511 -0 -0.0153275 -0 8.69799e-05)
(0.0146273 -1.35083 -0 -0.0145324 -0 -9.4824e-05)
(0.0132381 -1.47297 -0 -0.0132118 -0 -2.6322e-05)
(0.0111372 -1.55874 -0 -0.0111423 -0 5.17545e-06)
(0.00917705 -1.61519 -0 -0.00921445 -0 3.73942e-05)
(0.00739859 -1.65412 -0 -0.00742613 -0 2.75331e-05)
(0.00588507 -1.68372 -0 -0.00590483 -0 1.97561e-05)
(0.00468436 -1.70536 -0 -0.00470252 -0 1.81627e-05)
(0.00368012 -1.72313 -0 -0.00369178 -0 1.16585e-05)
(0.00277797 -1.73708 -0 -0.00278445 -0 6.48155e-06)
(0.00202386 -1.75014 -0 -0.00202987 -0 6.00922e-06)
(0.0013724 -1.75997 -0 -0.00137838 -0 5.97847e-06)
(0.000771976 -1.76988 -0 -0.000776743 -0 4.76681e-06)
(0.000199409 -1.77741 -0 -0.000203398 -0 3.9884e-06)
(-0.000330261 -1.78581 -0 0.000327161 -0 3.10053e-06)
(-0.000822166 -1.79204 -0 0.000819081 -0 3.08539e-06)
(-0.00130309 -1.79915 -0 0.00130033 -0 2.75928e-06)
(-0.00177018 -1.80426 -0 0.00176669 -0 3.48581e-06)
(-0.0022346 -1.81048 -0 0.00223041 -0 4.19393e-06)
(-0.00271164 -1.81496 -0 0.00270407 -0 7.57093e-06)
(-0.0031893 -1.81991 -0 0.00318011 -0 9.1957e-06)
(-0.00365768 -1.82238 -0 0.00365042 -0 7.25837e-06)
(-0.00415281 -1.82626 -0 0.00414759 -0 5.21938e-06)
(-0.00465772 -1.8288 -0 0.0046527 -0 5.02031e-06)
(-0.00518279 -1.83256 -0 0.00518041 -0 2.3788e-06)
(-0.00570254 -1.83502 -0 0.00570593 -0 -3.38751e-06)
(-0.00626652 -1.83874 -0 0.00627354 -0 -7.02925e-06)
(-0.00687672 -1.84121 -0 0.00688399 -0 -7.26753e-06)
(-0.00755531 -1.84499 -0 0.00756256 -0 -7.2447e-06)
(-0.00827492 -1.84742 -0 0.00828238 -0 -7.45219e-06)
(-0.0090982 -1.85119 -0 0.00910619 -0 -7.99483e-06)
(-0.00997553 -1.85346 -0 0.00998385 -0 -8.31588e-06)
(-0.0109935 -1.85722 -0 0.0110004 -0 -6.92513e-06)
(-0.0120321 -1.85899 -0 0.0120371 -0 -4.90684e-06)
(-0.0133399 -1.86243 -0 0.0133438 -0 -3.86769e-06)
(-0.0146882 -1.86367 -0 0.0146942 -0 -5.96281e-06)
(-0.0165438 -1.86725 -0 0.0165432 -0 6.3906e-07)
(-0.0183636 -1.86771 -0 0.0183786 -0 -1.50137e-05)
(-0.0212938 -1.87229 -0 0.0212681 -0 2.57672e-05)
(-0.0241862 -1.86952 -0 0.0242604 -0 -7.42122e-05)
(-0.0293118 -1.87832 -0 0.029124 -0 0.00018777)
(-0.0373092 -1.86333 -0 0.0377721 -0 -0.00046291)
(-0.045021 -1.86809 -0 0.0455544 -0 -0.000533376)
(-0.0416157 -1.8452 -0 0.0404187 -0 0.00119702)
(0.000449578 -0.110891 -0 -0.000240622 -0 -0.000208956)
(0.000502268 -0.119405 -0 -0.00071612 -0 0.000213852)
(0.00120149 -0.144792 -0 -0.00122434 -0 2.2846e-05)
(0.00195054 -0.173266 -0 -0.00197727 -0 2.67236e-05)
(0.00444391 -0.278265 -0 -0.00437061 -0 -7.3306e-05)
(0.00974196 -0.5242 -0 -0.00956232 -0 -0.000179643)
(0.0153786 -0.893348 -0 -0.0155049 -0 0.000126255)
(0.0162157 -1.07814 -0 -0.0164052 -0 0.000189516)
(0.0164045 -1.24151 -0 -0.0162818 -0 -0.000122773)
(0.0153015 -1.3748 -0 -0.0152219 -0 -7.9687e-05)
(0.0138586 -1.46959 -0 -0.0138528 -0 -5.80293e-06)
(0.0119731 -1.53909 -0 -0.0119813 -0 8.15596e-06)
(0.0102275 -1.59078 -0 -0.0102653 -0 3.77451e-05)
(0.00871109 -1.62828 -0 -0.00874582 -0 3.47286e-05)
(0.00731312 -1.65818 -0 -0.00733347 -0 2.03485e-05)
(0.00602559 -1.68147 -0 -0.00603972 -0 1.41289e-05)
(0.00496148 -1.70164 -0 -0.00497708 -0 1.55999e-05)
(0.00402245 -1.71689 -0 -0.00403504 -0 1.25873e-05)
(0.00313547 -1.73139 -0 -0.0031416 -0 6.1274e-06)
(0.00228632 -1.74261 -0 -0.00229013 -0 3.81598e-06)
(0.00151654 -1.75421 -0 -0.00152041 -0 3.87469e-06)
(0.000814906 -1.7628 -0 -0.000819956 -0 5.04968e-06)
(0.000138991 -1.77204 -0 -0.000143295 -0 4.30425e-06)
(-0.000522452 -1.77878 -0 0.000517816 -0 4.63538e-06)
(-0.00117441 -1.78661 -0 0.00117138 -0 3.02303e-06)
(-0.00183996 -1.79228 -0 0.00183655 -0 3.40921e-06)
(-0.00252637 -1.79908 -0 0.00251739 -0 8.98525e-06)
(-0.00320377 -1.80376 -0 0.00319076 -0 1.30029e-05)
(-0.00388422 -1.80961 -0 0.00387185 -0 1.23747e-05)
(-0.00456265 -1.81355 -0 0.00454976 -0 1.28863e-05)
(-0.00526566 -1.81878 -0 0.00525359 -0 1.20775e-05)
(-0.00598279 -1.82155 -0 0.00597213 -0 1.06688e-05)
(-0.00674579 -1.82473 -0 0.00673737 -0 8.41756e-06)
(-0.00754254 -1.82662 -0 0.00753574 -0 6.7994e-06)
(-0.00840799 -1.82994 -0 0.0084023 -0 5.69046e-06)
(-0.00931856 -1.83179 -0 0.00931375 -0 4.80521e-06)
(-0.0103433 -1.83501 -0 0.0103398 -0 3.49692e-06)
(-0.0114352 -1.83668 -0 0.0114323 -0 2.85222e-06)
(-0.0126728 -1.83975 -0 0.0126757 -0 -2.88396e-06)
(-0.0139544 -1.84107 -0 0.0139649 -0 -1.05524e-05)
(-0.0155346 -1.84403 -0 0.0155451 -0 -1.05086e-05)
(-0.0172048 -1.84499 -0 0.0172176 -0 -1.2826e-05)
(-0.0194021 -1.84796 -0 0.0194086 -0 -6.44679e-06)
(-0.0216676 -1.8482 -0 0.0216911 -0 -2.35441e-05)
(-0.0250116 -1.85181 -0 0.0249896 -0 2.20246e-05)
(-0.0287014 -1.84932 -0 0.028798 -0 -9.65441e-05)
(-0.0341808 -1.85574 -0 0.0339772 -0 0.000203599)
(-0.0438182 -1.84338 -0 0.044369 -0 -0.000550864)
(-0.0510821 -1.83853 -0 0.0517573 -0 -0.000675218)
(-0.0428516 -1.81968 -0 0.0414151 -0 0.00143645)
(0.000159463 -0.0950514 -0 5.99299e-05 -0 -0.000219393)
(0.000100331 -0.0977999 -0 -0.000328229 -0 0.000227898)
(0.000590856 -0.10745 -0 -0.000617735 -0 2.68786e-05)
(0.000918714 -0.116787 -0 -0.000918904 -0 1.89974e-07)
(0.00142948 -0.139467 -0 -0.00145493 -0 2.54476e-05)
(0.00362701 -0.227568 -0 -0.00356432 -0 -6.26893e-05)
(0.00815968 -0.427269 -0 -0.00799475 -0 -0.000164925)
(0.0143835 -0.764069 -0 -0.0143944 -0 1.08895e-05)
(0.0161439 -0.949346 -0 -0.0163929 -0 0.000249026)
(0.016715 -1.10527 -0 -0.0168142 -0 9.91788e-05)
(0.0166108 -1.23907 -0 -0.0164433 -0 -0.000167464)
(0.0155343 -1.34854 -0 -0.0154477 -0 -8.654e-05)
(0.0144335 -1.43279 -0 -0.0144408 -0 7.33677e-06)
(0.0130488 -1.49652 -0 -0.0130572 -0 8.35269e-06)
(0.0115244 -1.54746 -0 -0.0115455 -0 2.10816e-05)
(0.0100759 -1.5871 -0 -0.0101126 -0 3.66529e-05)
(0.00884146 -1.61984 -0 -0.00887783 -0 3.63734e-05)
(0.00765043 -1.64515 -0 -0.00767363 -0 2.32065e-05)
(0.0064756 -1.66808 -0 -0.00648689 -0 1.12879e-05)
(0.00535299 -1.6861 -0 -0.00536205 -0 9.06121e-06)
(0.00436338 -1.70336 -0 -0.00437596 -0 1.25727e-05)
(0.00345922 -1.71633 -0 -0.0034724 -0 1.31847e-05)
(0.00256913 -1.72948 -0 -0.00257603 -0 6.90067e-06)
(0.00168084 -1.73943 -0 -0.00168515 -0 4.31142e-06)
(0.000811791 -1.75023 -0 -0.000814115 -0 2.32339e-06)
(-4.7042e-05 -1.75826 -0 4.6629e-05 -0 4.13028e-07)
(-0.000909803 -1.76728 -0 0.000909706 -0 9.67577e-08)
(-0.001771 -1.77355 -0 0.00176938 -0 1.62194e-06)
(-0.00264102 -1.78089 -0 0.00263829 -0 2.73207e-06)
(-0.00350977 -1.78589 -0 0.00350538 -0 4.39188e-06)
(-0.00441081 -1.79219 -0 0.00440467 -0 6.14604e-06)
(-0.00535868 -1.79642 -0 0.00534559 -0 1.30936e-05)
(-0.00636341 -1.80201 -0 0.00634651 -0 1.69074e-05)
(-0.00738423 -1.80561 -0 0.0073679 -0 1.6335e-05)
(-0.00846817 -1.81064 -0 0.00845233 -0 1.5835e-05)
(-0.00959785 -1.81372 -0 0.0095822 -0 1.56528e-05)
(-0.0108498 -1.81827 -0 0.0108345 -0 1.52933e-05)
(-0.0121787 -1.82083 -0 0.0121628 -0 1.59244e-05)
(-0.013681 -1.8248 -0 0.0136647 -0 1.62883e-05)
(-0.0152651 -1.8254 -0 0.0152509 -0 1.42405e-05)
(-0.0171382 -1.82757 -0 0.0171243 -0 1.39083e-05)
(-0.0191475 -1.82803 -0 0.0191381 -0 9.47077e-06)
(-0.021684 -1.83016 -0 0.0216654 -0 1.85126e-05)
(-0.0244113 -1.82994 -0 0.0244173 -0 -6.00421e-06)
(-0.0281448 -1.83244 -0 0.0280873 -0 5.7499e-05)
(-0.0326427 -1.82993 -0 0.0327327 -0 -9.00694e-05)
(-0.0384218 -1.83367 -0 0.0381686 -0 0.000253148)
(-0.0494006 -1.82393 -0 0.0500545 -0 -0.000653937)
(-0.0566863 -1.81182 -0 0.057536 -0 -0.000849618)
(-0.0437647 -1.79541 -0 0.0421184 -0 0.00164626)
(-9.27118e-05 -0.0810408 -0 0.000321084 -0 -0.000228372)
(-0.000104073 -0.0829068 -0 -0.000132692 -0 0.000236764)
(0.000309221 -0.086875 -0 -0.000340646 -0 3.14254e-05)
(0.000595443 -0.0910858 -0 -0.00058199 -0 -1.34533e-05)
(0.000665668 -0.0957535 -0 -0.000665856 -0 1.87629e-07)