/*--------------------------------*- C++ -*----------------------------------*\
| =========                 |                                                 |
| \\      /  F ield         | OpenFOAM: The Open Source CFD Toolbox           |
|  \\    /   O peration     | Version:  2412                                  |
|   \\  /    A nd           | Website:  www.openfoam.com                      |
|    \\/     M anipulation  |                                                 |
\*---------------------------------------------------------------------------*/
FoamFile
{
    version     2.0;
    format      ascii;
    arch        "LSB;label=32;scalar=64";
    class       volVectorField;
    location    "1500";
    object      U;
}
// * * * * * * * * * * * * * * * * * * * * * * * * * * * * * * * * * * * * * //

dimensions      [0 1 -1 0 0 0 0];

internalField   nonuniform List<vector> 
18000
(
(3.22195 -0.00288282 0)
(1.85589 0.00106298 0)
(1.42694 0.000271741 0)
(1.25803 -2.1962e-05 0)
(1.38476 -0.000150105 0)
(1.52684 -0.000104394 0)
(1.60992 -4.93556e-05 0)
(1.6608 -2.77112e-05 0)
(1.6945 -1.84767e-05 0)
(1.71851 -1.36608e-05 0)
(1.73639 -9.80667e-06 0)
(1.74973 -7.79099e-06 0)
(1.7608 -6.83395e-06 0)
(1.77021 -6.15766e-06 0)
(1.779 -5.88827e-06 0)
(1.78686 -5.75226e-06 0)
(1.79468 -5.54043e-06 0)
(1.80183 -5.59626e-06 0)
(1.80927 -5.60853e-06 0)
(1.8162 -5.53195e-06 0)
(1.82341 -5.56916e-06 0)
(1.83021 -5.81766e-06 0)
(1.83749 -6.23746e-06 0)
(1.84454 -6.37892e-06 0)
(1.85199 -6.64466e-06 0)
(1.85924 -6.95871e-06 0)
(1.86693 -7.18589e-06 0)
(1.87438 -7.61924e-06 0)
(1.88235 -8.23254e-06 0)
(1.89026 -8.68911e-06 0)
(1.89871 -9.35609e-06 0)
(1.90722 -1.0124e-05 0)
(1.91639 -1.0924e-05 0)
(1.92565 -1.18648e-05 0)
(1.93567 -1.28678e-05 0)
(1.94583 -1.42292e-05 0)
(1.95699 -1.57873e-05 0)
(1.96846 -1.76514e-05 0)
(1.98119 -1.96193e-05 0)
(1.99436 -2.23276e-05 0)
(2.00916 -2.51546e-05 0)
(2.02474 -2.95496e-05 0)
(2.04229 -3.37815e-05 0)
(2.06193 -4.31594e-05 0)
(2.08323 -4.9284e-05 0)
(2.11251 -7.8399e-05 0)
(2.13693 -8.66027e-05 0)
(2.20326 -0.000216375 0)
(2.22339 -0.000424722 0)
(2.20722 -0.0427904 0)
(9.92374 0.0168965 0)
(5.70263 0.0130688 0)
(4.44871 0.00405208 0)
(3.95554 -4.60947e-05 0)
(4.35791 -0.00229734 0)
(4.79075 -0.00186607 0)
(5.04027 -0.00108469 0)
(5.19592 -0.000694784 0)
(5.30008 -0.000485025 0)
(5.37396 -0.000356885 0)
(5.42884 -0.000270671 0)
(5.4698 -0.000215873 0)
(5.50376 -0.000185338 0)
(5.53256 -0.000168167 0)
(5.5594 -0.000156995 0)
(5.58328 -0.000150665 0)
(5.607 -0.000146553 0)
(5.62866 -0.000146021 0)
(5.65107 -0.000146664 0)
(5.67186 -0.000147222 0)
(5.69351 -0.000148817 0)
(5.71384 -0.000152947 0)
(5.73554 -0.000159292 0)
(5.75643 -0.000164258 0)
(5.7785 -0.000170273 0)
(5.79992 -0.000177158 0)
(5.8226 -0.000183133 0)
(5.84445 -0.000190866 0)
(5.86775 -0.000201301 0)
(5.89075 -0.000212168 0)
(5.91533 -0.000225204 0)
(5.93995 -0.000240538 0)
(5.96647 -0.000256656 0)
(5.9931 -0.000274966 0)
(6.02188 -0.000294591 0)
(6.05093 -0.000319193 0)
(6.08276 -0.000346946 0)
(6.11526 -0.0003805 0)
(6.15127 -0.000416669 0)
(6.18827 -0.000461951 0)
(6.22975 -0.000512774 0)
(6.27304 -0.000575582 0)
(6.32159 -0.000657431 0)
(6.37543 -0.000752949 0)
(6.43308 -0.000928799 0)
(6.51192 -0.00107254 0)
(6.57466 -0.00166583 0)
(6.74591 -0.00202728 0)
(6.78249 -0.00239433 0)
(7.1895 -0.0969474 0)
(14.9435 0.0766467 0)
(9.8503 0.0381418 0)
(7.82817 0.0128248 0)
(7.01377 3.10607e-06 0)
(7.65245 -0.00724281 0)
(8.28885 -0.00590683 0)
(8.64982 -0.00352223 0)
(8.87813 -0.00229399 0)
(9.03192 -0.00160866 0)
(9.14089 -0.0011865 0)
(9.22191 -0.000901336 0)
(9.28255 -0.000719293 0)
(9.33287 -0.000615963 0)
(9.3756 -0.000557612 0)
(9.4154 -0.000519768 0)
(9.45087 -0.00049877 0)
(9.48613 -0.00048534 0)
(9.51838 -0.000482479 0)
(9.55166 -0.000483911 0)
(9.58266 -0.000486128 0)
(9.61489 -0.000491388 0)
(9.64523 -0.000503821 0)
(9.67748 -0.000523288 0)
(9.70859 -0.000539885 0)
(9.74139 -0.000559309 0)
(9.77328 -0.000581294 0)
(9.80695 -0.000600562 0)
(9.83943 -0.000624003 0)
(9.87389 -0.000655825 0)
(9.90796 -0.000690146 0)
(9.94425 -0.000730831 0)
(9.9806 -0.000778578 0)
(10.0196 -0.000828948 0)
(10.0588 -0.000885808 0)
(10.101 -0.000946697 0)
(10.1436 -0.00102169 0)
(10.19 -0.0011064 0)
(10.2374 -0.00120821 0)
(10.2896 -0.00131889 0)
(10.3433 -0.00145394 0)
(10.4029 -0.00160859 0)
(10.4654 -0.00178881 0)
(10.5343 -0.00203969 0)
(10.6115 -0.00228792 0)
(10.6914 -0.00284304 0)
(10.8032 -0.00310184 0)
(10.8856 -0.00495254 0)
(11.1177 -0.00530418 0)
(11.156 -0.00914392 0)
(11.7939 -0.131409 0)
(18.5682 0.137543 0)
(13.9733 0.0717399 0)
(11.4773 0.0277393 0)
(10.3539 0.00146969 0)
(10.9304 -0.0131796 0)
(11.4484 -0.01057 0)
(11.7543 -0.00647618 0)
(11.9612 -0.00432096 0)
(12.1051 -0.00306417 0)
(12.2093 -0.0022768 0)
(12.2884 -0.00174196 0)
(12.3486 -0.00139823 0)
(12.3994 -0.00120181 0)
(12.4432 -0.00109173 0)
(12.4844 -0.00102132 0)
(12.5218 -0.00098379 0)
(12.5593 -0.000960888 0)
(12.5941 -0.000957284 0)
(12.6302 -0.00096275 0)
(12.6643 -0.000970641 0)
(12.6999 -0.000983684 0)
(12.7338 -0.00100929 0)
(12.7697 -0.00104852 0)
(12.8049 -0.00108401 0)
(12.8419 -0.00112449 0)
(12.8782 -0.0011694 0)
(12.9164 -0.00120932 0)
(12.9537 -0.00125615 0)
(12.993 -0.00131913 0)
(13.0322 -0.0013883 0)
(13.0738 -0.00146953 0)
(13.1158 -0.0015641 0)
(13.1605 -0.00166432 0)
(13.2059 -0.00177678 0)
(13.2543 -0.00189762 0)
(13.3037 -0.00204391 0)
(13.3569 -0.00220975 0)
(13.4117 -0.00240693 0)
(13.4713 -0.00262425 0)
(13.5334 -0.00288238 0)
(13.6011 -0.00318539 0)
(13.6733 -0.00352062 0)
(13.7507 -0.00401427 0)
(13.8398 -0.00444666 0)
(13.9276 -0.00553462 0)
(14.0551 -0.0058846 0)
(14.1432 -0.00935596 0)
(14.3894 -0.00957025 0)
(14.4485 -0.0194858 0)
(15.0422 -0.156237 0)
(21.089 0.177483 0)
(17.6966 0.106429 0)
(15.1806 0.0480336 0)
(13.8167 0.00612503 0)
(13.9796 -0.0170443 0)
(14.1145 -0.0135894 0)
(14.2391 -0.00865386 0)
(14.3539 -0.00599572 0)
(14.4434 -0.00433466 0)
(14.513 -0.00326683 0)
(14.5694 -0.00253167 0)
(14.6144 -0.0020556 0)
(14.6543 -0.00178487 0)
(14.6901 -0.00163655 0)
(14.7251 -0.00154458 0)
(14.758 -0.00150033 0)
(14.7919 -0.00147637 0)
(14.8242 -0.00147945 0)
(14.8582 -0.00149666 0)
(14.8912 -0.001518 0)
(14.9259 -0.00154588 0)
(14.9597 -0.00159104 0)
(14.9956 -0.00165693 0)
(15.0313 -0.00171906 0)
(15.0689 -0.00178821 0)
(15.1065 -0.00186246 0)
(15.1458 -0.00192945 0)
(15.1846 -0.00200675 0)
(15.2255 -0.00210929 0)
(15.2668 -0.00222285 0)
(15.3104 -0.00235501 0)
(15.3549 -0.00250695 0)
(15.402 -0.00266866 0)
(15.4502 -0.00284898 0)
(15.5014 -0.00304397 0)
(15.5541 -0.00327595 0)
(15.6104 -0.00354029 0)
(15.669 -0.00385018 0)
(15.732 -0.0041972 0)
(15.7985 -0.00459839 0)
(15.8696 -0.00508093 0)
(15.9468 -0.00559271 0)
(16.0277 -0.00637705 0)
(16.1226 -0.00701429 0)
(16.2137 -0.00870146 0)
(16.3458 -0.00918359 0)
(16.4401 -0.0142496 0)
(16.6723 -0.0147709 0)
(16.7699 -0.029846 0)
(17.2526 -0.174658 0)
(22.7841 0.20014 0)
(20.7285 0.136576 0)
(18.6251 0.0714102 0)
(17.1507 0.0162273 0)
(16.7311 -0.0157271 0)
(16.4814 -0.0135165 0)
(16.3789 -0.00905465 0)
(16.357 -0.00664557 0)
(16.3589 -0.00497024 0)
(16.3705 -0.00384687 0)
(16.3872 -0.00305124 0)
(16.4045 -0.00253099 0)
(16.4238 -0.00224358 0)
(16.4442 -0.00209674 0)
(16.4668 -0.002013 0)
(16.4901 -0.00198593 0)
(16.5159 -0.00198038 0)
(16.5418 -0.00200643 0)
(16.5703 -0.00205043 0)
(16.599 -0.00209934 0)
(16.63 -0.00215465 0)
(16.6611 -0.00223057 0)
(16.6944 -0.0023343 0)
(16.7283 -0.00243478 0)
(16.7644 -0.00254354 0)
(16.8009 -0.00265542 0)
(16.8391 -0.00275761 0)
(16.8775 -0.00287545 0)
(16.9179 -0.00302966 0)
(16.9592 -0.00320071 0)
(17.003 -0.00339761 0)
(17.048 -0.00362007 0)
(17.0956 -0.00385762 0)
(17.1447 -0.00412091 0)
(17.1967 -0.00440786 0)
(17.2507 -0.0047432 0)
(17.308 -0.00512735 0)
(17.3682 -0.00557065 0)
(17.4323 -0.00607468 0)
(17.5007 -0.00664242 0)
(17.573 -0.00733933 0)
(17.6524 -0.00805624 0)
(17.7344 -0.00917761 0)
(17.831 -0.0100611 0)
(17.9242 -0.0123874 0)
(18.0536 -0.0131156 0)
(18.1568 -0.0196527 0)
(18.3624 -0.0210431 0)
(18.4999 -0.0402013 0)
(18.8737 -0.189196 0)
(23.9386 0.211747 0)
(22.9581 0.158774 0)
(21.509 0.0936438 0)
(20.1699 0.0310715 0)
(19.2418 -0.00791151 0)
(18.7046 -0.00900589 0)
(18.369 -0.00660244 0)
(18.1787 -0.00542273 0)
(18.0639 -0.00435528 0)
(17.9949 -0.00357302 0)
(17.9546 -0.00297408 0)
(17.9307 -0.00257646 0)
(17.9194 -0.00238566 0)
(17.9162 -0.00231826 0)
(17.9199 -0.0022993 0)
(17.9279 -0.00233386 0)
(17.9411 -0.00238244 0)
(17.9567 -0.00246034 0)
(17.9761 -0.00255594 0)
(17.9974 -0.00265485 0)
(18.0219 -0.00275765 0)
(18.0476 -0.002882 0)
(18.0762 -0.00303997 0)
(18.1061 -0.00319475 0)
(18.1386 -0.00335799 0)
(18.1721 -0.00351955 0)
(18.2076 -0.00366782 0)
(18.2438 -0.003839 0)
(18.2823 -0.00406029 0)
(18.3222 -0.00430475 0)
(18.3647 -0.00458237 0)
(18.4089 -0.00488939 0)
(18.4556 -0.00521787 0)
(18.5042 -0.00558061 0)
(18.5556 -0.00597884 0)
(18.6095 -0.00643658 0)
(18.6665 -0.00696291 0)
(18.7269 -0.00756126 0)
(18.7909 -0.00824947 0)
(18.8596 -0.0090078 0)
(18.9317 -0.00995081 0)
(19.0113 -0.0109057 0)
(19.0933 -0.0123991 0)
(19.1891 -0.0135848 0)
(19.2836 -0.0165677 0)
(19.4079 -0.0176979 0)
(19.5188 -0.0255714 0)
(19.7024 -0.0283642 0)
(19.8646 -0.0507184 0)
(20.162 -0.201321 0)
(24.8164 0.217001 0)
(24.4855 0.172319 0)
(23.6778 0.111009 0)
(22.7618 0.0490973 0)
(21.6279 0.00610954 0)
(20.8771 0.00043431 0)
(20.3296 -0.000378194 0)
(19.9564 -0.00132819 0)
(19.7008 -0.00165235 0)
(19.5288 -0.00180565 0)
(19.4131 -0.00181167 0)
(19.333 -0.00181351 0)
(19.2789 -0.00191531 0)
(19.2426 -0.00206149 0)
(19.2194 -0.00220449 0)
(19.2056 -0.0023777 0)
(19.2005 -0.00254139 0)
(19.2009 -0.00271913 0)
(19.2073 -0.00290619 0)
(19.2174 -0.0030907 0)
(19.2322 -0.0032727 0)
(19.2497 -0.0034731 0)
(19.2709 -0.00370977 0)
(19.2944 -0.00394126 0)
(19.3212 -0.00418131 0)
(19.3499 -0.00441754 0)
(19.3814 -0.0046339 0)
(19.4141 -0.00487685 0)
(19.4496 -0.00518487 0)
(19.487 -0.00552219 0)
(19.5273 -0.00589925 0)
(19.5695 -0.00630672 0)
(19.6144 -0.00674337 0)
(19.6614 -0.00722491 0)
(19.7114 -0.00775642 0)
(19.7641 -0.00835864 0)
(19.82 -0.00905204 0)
(19.8796 -0.00983036 0)
(19.9426 -0.0107316 0)
(20.0105 -0.0117081 0)
(20.0817 -0.0129301 0)
(20.1603 -0.0141615 0)
(20.2416 -0.0160632 0)
(20.3355 -0.0176142 0)
(20.4301 -0.0212676 0)
(20.5497 -0.0229627 0)
(20.6639 -0.032034 0)
(20.8332 -0.0367217 0)
(21.0044 -0.0615645 0)
(21.2532 -0.212117 0)
(25.5985 0.219123 0)
(25.5566 0.179489 0)
(25.1837 0.121534 0)
(24.7301 0.0642765 0)
(23.8708 0.0246478 0)
(22.9696 0.0148214 0)
(22.2985 0.0102045 0)
(21.7711 0.00654491 0)
(21.3661 0.00414708 0)
(21.0742 0.00231756 0)
(20.864 0.00115251 0)
(20.7106 0.000328461 0)
(20.5998 -0.000377617 0)
(20.5183 -0.000950587 0)
(20.4581 -0.00141623 0)
(20.4143 -0.00185745 0)
(20.3842 -0.0022352 0)
(20.3634 -0.00258913 0)
(20.3514 -0.0029315 0)
(20.3458 -0.00325855 0)
(20.3471 -0.00356963 0)
(20.3527 -0.0038883 0)
(20.3635 -0.00423989 0)
(20.3778 -0.00458067 0)
(20.3963 -0.00492691 0)
(20.4176 -0.00526936 0)
(20.443 -0.00559221 0)
(20.4708 -0.00594267 0)
(20.502 -0.00636541 0)
(20.5356 -0.00682105 0)
(20.5724 -0.00732103 0)
(20.6115 -0.00784872 0)
(20.6534 -0.00841516 0)
(20.6979 -0.00904004 0)
(20.7455 -0.0097313 0)
(20.7961 -0.0105046 0)
(20.85 -0.0113938 0)
(20.9077 -0.0123818 0)
(20.9689 -0.0135267 0)
(21.0351 -0.014752 0)
(21.1046 -0.0162884 0)
(21.1812 -0.0178421 0)
(21.2611 -0.0201907 0)
(21.3526 -0.0221802 0)
(21.4461 -0.0265356 0)
(21.5612 -0.0289527 0)
(21.6759 -0.0391883 0)
(21.8337 -0.0461092 0)
(22.0071 -0.073024 0)
(22.2211 -0.222152 0)
(26.3615 0.219752 0)
(26.412 0.183332 0)
(26.2705 0.126876 0)
(26.0422 0.073071 0)
(25.6975 0.040147 0)
(24.9654 0.032873 0)
(24.2156 0.0254496 0)
(23.6281 0.0185596 0)
(23.106 0.0138309 0)
(22.7 0.00973926 0)
(22.3827 0.00686783 0)
(22.1408 0.00465359 0)
(21.9583 0.00291371 0)
(21.8173 0.00159794 0)
(21.7079 0.000549269 0)
(21.6239 -0.000368944 0)
(21.56 -0.00111308 0)
(21.5103 -0.00176299 0)
(21.4733 -0.00236519 0)
(21.4464 -0.00292643 0)
(21.4291 -0.00344335 0)
(21.4186 -0.00394287 0)
(21.4149 -0.00446295 0)
(21.4163 -0.0049619 0)
(21.4232 -0.00546124 0)
(21.4343 -0.00595733 0)
(21.4504 -0.00643148 0)
(21.4703 -0.00693073 0)
(21.4944 -0.00750584 0)
(21.5217 -0.00811254 0)
(21.5527 -0.00876876 0)
(21.5867 -0.00945617 0)
(21.6241 -0.0101906 0)
(21.6646 -0.0109916 0)
(21.7085 -0.0118747 0)
(21.7557 -0.0128517 0)
(21.8066 -0.0139704 0)
(21.8613 -0.015204 0)
(21.9198 -0.0166266 0)
(21.983 -0.0181364 0)
(22.05 -0.0200277 0)
(22.1237 -0.0219548 0)
(22.2014 -0.0248 0)
(22.2895 -0.0272986 0)
(22.3812 -0.0324063 0)
(22.4914 -0.0356817 0)
(22.6056 -0.047076 0)
(22.7529 -0.0565249 0)
(22.9252 -0.0852539 0)
(23.1144 -0.231756 0)
(27.1142 0.219264 0)
(27.195 0.185785 0)
(27.1569 0.129925 0)
(27.0183 0.0773205 0)
(26.8754 0.0476361 0)
(26.6178 0.0474399 0)
(26.0512 0.0432558 0)
(25.4419 0.0351266 0)
(24.8821 0.0272667 0)
(24.4197 0.0209647 0)
(24.0083 0.0161759 0)
(23.6797 0.0120749 0)
(23.4151 0.00890121 0)
(23.2011 0.00642254 0)
(23.0303 0.0044052 0)
(22.8948 0.00270874 0)
(22.7862 0.00137688 0)
(22.6979 0.000239672 0)
(22.6279 -0.000795746 0)
(22.5726 -0.00173544 0)
(22.5306 -0.00257061 0)
(22.498 -0.00334178 0)
(22.4746 -0.00411289 0)
(22.4585 -0.00484691 0)
(22.45 -0.00556933 0)
(22.4472 -0.00628261 0)
(22.4505 -0.00697163 0)
(22.4587 -0.00767798 0)
(22.4722 -0.00845434 0)
(22.4898 -0.00925681 0)
(22.5119 -0.0101104 0)
(22.5378 -0.0109989 0)
(22.5682 -0.0119475 0)
(22.6022 -0.0129705 0)
(22.6404 -0.0140881 0)
(22.6822 -0.0153102 0)
(22.7279 -0.0166999 0)
(22.7779 -0.0182216 0)
(22.8319 -0.0199715 0)
(22.8909 -0.0218263 0)
(22.9542 -0.0241252 0)
(23.024 -0.0264879 0)
(23.0985 -0.0298889 0)
(23.1825 -0.0329836 0)
(23.2715 -0.038901 0)
(23.3764 -0.043204 0)
(23.4888 -0.0557564 0)
(23.6268 -0.0680382 0)
(23.7949 -0.0984612 0)
(23.9674 -0.241158 0)
(27.849 0.217461 0)
(27.9543 0.187677 0)
(27.9605 0.131879 0)
(27.8678 0.0801858 0)
(27.7732 0.0509771 0)
(27.6695 0.0534054 0)
(27.517 0.0555508 0)
(27.1268 0.0516141 0)
(26.6334 0.0450568 0)
(26.1452 0.0363794 0)
(25.7044 0.0288824 0)
(25.3346 0.0230389 0)
(24.9976 0.0184362 0)
(24.7118 0.014411 0)
(24.4756 0.0110516 0)
(24.2797 0.00826664 0)
(24.1153 0.00604734 0)
(23.9786 0.00412445 0)
(23.8668 0.00239611 0)
(23.775 0.000870665 0)
(23.7003 -0.000437692 0)
(23.6383 -0.00161649 0)
(23.5887 -0.00277508 0)
(23.5495 -0.00386864 0)
(23.5204 -0.00492121 0)
(23.4992 -0.00593877 0)
(23.4857 -0.00691381 0)
(23.4782 -0.00789406 0)
(23.4771 -0.00893994 0)
(23.4814 -0.0100047 0)
(23.4914 -0.0111235 0)
(23.5061 -0.0122856 0)
(23.5261 -0.0135164 0)
(23.5507 -0.0148208 0)
(23.5801 -0.0162283 0)
(23.6137 -0.0177489 0)
(23.6518 -0.0194616 0)
(23.6945 -0.021324 0)
(23.7418 -0.0234492 0)
(23.7944 -0.0257096 0)
(23.8521 -0.028482 0)
(23.9161 -0.0313565 0)
(23.9856 -0.0353809 0)
(24.0639 -0.0391755 0)
(24.1486 -0.0459638 0)
(24.2471 -0.0514758 0)
(24.3558 -0.0652168 0)
(24.4848 -0.0806439 0)
(24.6468 -0.112877 0)
(24.8072 -0.250629 0)
(28.5666 0.2142 0)
(28.6945 0.189091 0)
(28.7274 0.133247 0)
(28.6611 0.0824082 0)
(28.5865 0.0535522 0)
(28.5147 0.0557865 0)
(28.4629 0.0597836 0)
(28.3668 0.0611017 0)
(28.1604 0.058649 0)
(27.8045 0.05328 0)
(27.3984 0.0463125 0)
(27.0091 0.0381928 0)
(26.6486 0.0312011 0)
(26.3364 0.0255585 0)
(26.0567 0.0210739 0)
(25.8044 0.0171841 0)
(25.5831 0.013769 0)
(25.3965 0.0107308 0)
(25.2375 0.00806871 0)
(25.1017 0.00572456 0)
(24.9856 0.00373375 0)
(24.8863 0.00193126 0)
(24.8038 0.000170051 0)
(24.7353 -0.00146979 0)
(24.6797 -0.00300197 0)
(24.6342 -0.00444565 0)
(24.5984 -0.00580373 0)
(24.5701 -0.00715066 0)
(24.55 -0.00856806 0)
(24.5368 -0.00999599 0)
(24.5309 -0.0114744 0)
(24.5311 -0.0129948 0)
(24.5375 -0.0145876 0)
(24.5494 -0.0162513 0)
(24.567 -0.0180224 0)
(24.5894 -0.0199131 0)
(24.6172 -0.022019 0)
(24.65 -0.024294 0)
(24.6881 -0.0268745 0)
(24.7317 -0.029632 0)
(24.7811 -0.0329594 0)
(24.8369 -0.0364393 0)
(24.8992 -0.0411726 0)
(24.9698 -0.045788 0)
(25.0481 -0.0535353 0)
(25.1384 -0.0604444 0)
(25.241 -0.0754362 0)
(25.3607 -0.0941304 0)
(25.5113 -0.128296 0)
(25.66 -0.260287 0)
(29.2728 0.209474 0)
(29.4172 0.189998 0)
(29.47 0.134096 0)
(29.4228 0.0843324 0)
(29.3598 0.0557471 0)
(29.304 0.0575049 0)
(29.2677 0.0617516 0)
(29.2329 0.0636256 0)
(29.1833 0.0643205 0)
(29.0846 0.0633582 0)
(28.904 0.0596498 0)
(28.6211 0.054334 0)
(28.3035 0.0485591 0)
(27.9836 0.0414972 0)
(27.6867 0.0347112 0)
(27.4161 0.0290696 0)
(27.1717 0.0243116 0)
(26.9582 0.0203509 0)
(26.7587 0.0169679 0)
(26.5793 0.0137407 0)
(26.4195 0.0108148 0)
(26.2819 0.00810527 0)
(26.1637 0.00554087 0)
(26.0613 0.00316563 0)
(25.973 0.000981574 0)
(25.8969 -0.00105132 0)
(25.8324 -0.0029396 0)
(25.7778 -0.00480608 0)
(25.7338 -0.00675797 0)
(25.6988 -0.00870194 0)
(25.6729 -0.0106723 0)
(25.6544 -0.0126624 0)
(25.6434 -0.014715 0)
(25.6388 -0.0168324 0)
(25.6408 -0.0190573 0)
(25.6486 -0.0214097 0)
(25.6627 -0.024003 0)
(25.6824 -0.0267917 0)
(25.7086 -0.0299234 0)
(25.7407 -0.0332789 0)
(25.7795 -0.0372647 0)
(25.8249 -0.0414706 0)
(25.8778 -0.0470226 0)
(25.9386 -0.0526105 0)
(26.0084 -0.0614285 0)
(26.0893 -0.0699461 0)
(26.1833 -0.0863247 0)
(26.293 -0.1085 0)
(26.4279 -0.144601 0)
(26.5615 -0.270031 0)
(29.9727 0.203313 0)
(30.1269 0.190358 0)
(30.1951 0.134481 0)
(30.1622 0.0859696 0)
(30.1088 0.0577643 0)
(30.063 0.0590079 0)
(30.0355 0.0630931 0)
(30.0131 0.0650242 0)
(29.9913 0.066072 0)
(29.9625 0.0659897 0)
(29.9242 0.0651368 0)
(29.8502 0.0635281 0)
(29.7279 0.0603451 0)
(29.5386 0.0558452 0)
(29.3017 0.0510396 0)
(29.0516 0.0458374 0)
(28.8021 0.0399428 0)
(28.5711 0.0339569 0)
(28.3564 0.0287974 0)
(28.1619 0.0244105 0)
(27.9825 0.0203973 0)
(27.8274 0.0168675 0)
(27.6821 0.0138322 0)
(27.5476 0.0108681 0)
(27.4258 0.0079653 0)
(27.3174 0.00516547 0)
(27.2221 0.00251865 0)
(27.14 -8.13604e-05 0)
(27.0702 -0.00273316 0)
(27.0106 -0.00535803 0)
(26.9607 -0.0079707 0)
(26.9192 -0.0105661 0)
(26.8863 -0.0132025 0)
(26.8608 -0.0158984 0)
(26.8432 -0.0186985 0)
(26.8324 -0.021641 0)
(26.8293 -0.024859 0)
(26.8329 -0.0283124 0)
(26.8443 -0.0321362 0)
(26.8622 -0.0362262 0)
(26.8879 -0.0409979 0)
(26.9204 -0.0460739 0)
(26.9614 -0.0525762 0)
(27.0103 -0.0593083 0)
(27.0691 -0.0693372 0)
(27.1386 -0.079693 0)
(27.2219 -0.0976121 0)
(27.3195 -0.123302 0)
(27.4395 -0.161462 0)
(27.5557 -0.279726 0)
(30.6696 0.195746 0)
(30.8285 0.190106 0)
(30.9081 0.134443 0)
(30.8865 0.0873233 0)
(30.841 0.059681 0)
(30.8027 0.06031 0)
(30.7816 0.0642163 0)
(30.7669 0.0660844 0)
(30.7521 0.0670536 0)
(30.7375 0.0670675 0)
(30.7226 0.0665837 0)
(30.7064 0.0655439 0)
(30.6815 0.0641636 0)
(30.6441 0.0626069 0)
(30.5791 0.060348 0)
(30.4789 0.0572556 0)
(30.3408 0.0533122 0)
(30.1661 0.049093 0)
(29.9781 0.0448836 0)
(29.7884 0.0402217 0)
(29.6038 0.0352538 0)
(29.4313 0.02999 0)
(29.2725 0.0252118 0)
(29.1256 0.0210774 0)
(28.991 0.017243 0)
(28.8689 0.013649 0)
(28.7581 0.0101532 0)
(28.6618 0.00689871 0)
(28.5723 0.00385778 0)
(28.4898 0.000746389 0)
(28.4159 -0.00247849 0)
(28.3503 -0.00575534 0)
(28.294 -0.00911456 0)
(28.2462 -0.0125616 0)
(28.2075 -0.0161259 0)
(28.1771 -0.0198445 0)
(28.1557 -0.0238562 0)
(28.1419 -0.0281492 0)
(28.1365 -0.0328398 0)
(28.1381 -0.0378375 0)
(28.1481 -0.0435506 0)
(28.1651 -0.0496669 0)
(28.1914 -0.0572741 0)
(28.2257 -0.0653512 0)
(28.2708 -0.0767535 0)
(28.3261 -0.0892199 0)
(28.3964 -0.108845 0)
(28.4791 -0.138153 0)
(28.5833 -0.178402 0)
(28.6821 -0.289214 0)
(31.3658 0.186819 0)
(31.5256 0.189153 0)
(31.6136 0.133998 0)
(31.601 0.0884108 0)
(31.5622 0.0614859 0)
(31.53 0.0614727 0)
(31.514 0.0651632 0)
(31.5045 0.0668905 0)
(31.495 0.0677613 0)
(31.4857 0.0677915 0)
(31.4773 0.0672231 0)
(31.4697 0.0662216 0)
(31.4625 0.0650508 0)
(31.4547 0.063664 0)
(31.4456 0.0621316 0)
(31.4309 0.0605271 0)
(31.4088 0.0588346 0)
(31.3712 0.0568888 0)
(31.3158 0.0543724 0)
(31.2366 0.0512963 0)
(31.1384 0.0476564 0)
(31.0146 0.0436938 0)
(30.8827 0.0400181 0)
(30.747 0.0360517 0)
(30.6146 0.031763 0)
(30.4857 0.0272888 0)
(30.3657 0.0226774 0)
(30.254 0.0178763 0)
(30.1532 0.0133204 0)
(30.0599 0.00911245 0)
(29.9766 0.00498624 0)
(29.9005 0.000894722 0)
(29.834 -0.00326402 0)
(29.775 -0.00749566 0)
(29.7253 -0.0118962 0)
(29.6838 -0.0164259 0)
(29.6503 -0.021112 0)
(29.6223 -0.026043 0)
(29.6013 -0.0314785 0)
(29.5868 -0.0373652 0)
(29.5803 -0.0440762 0)
(29.5812 -0.0513609 0)
(29.5914 -0.0602293 0)
(29.6102 -0.0698785 0)
(29.6401 -0.0828492 0)
(29.6806 -0.0977477 0)
(29.7359 -0.119288 0)
(29.8032 -0.152314 0)
(29.8896 -0.194814 0)
(29.971 -0.298153 0)
(32.0635 0.176601 0)
(32.2208 0.187381 0)
(32.3147 0.133152 0)
(32.3096 0.089218 0)
(32.2767 0.0631787 0)
(32.2495 0.0625096 0)
(32.2377 0.0659289 0)
(32.2321 0.0674984 0)
(32.2267 0.0682713 0)
(32.2215 0.0682494 0)
(32.2171 0.067633 0)
(32.2136 0.0666213 0)
(32.2107 0.0653786 0)
(32.2086 0.063917 0)
(32.2071 0.0624025 0)
(32.2063 0.0608568 0)
(32.2059 0.0592723 0)
(32.2052 0.0575395 0)
(32.2029 0.0557623 0)
(32.1981 0.0538833 0)
(32.1878 0.0519594 0)
(32.1712 0.0499426 0)
(32.1441 0.0475378 0)
(32.107 0.0447285 0)
(32.0579 0.041488 0)
(31.9974 0.0379743 0)
(31.9272 0.0340962 0)
(31.846 0.030055 0)
(31.7628 0.0261542 0)
(31.6791 0.0219513 0)
(31.5987 0.017448 0)
(31.5205 0.012644 0)
(31.4491 0.0075778 0)
(31.3819 0.00225741 0)
(31.3231 -0.00332638 0)
(31.2701 -0.00923357 0)
(31.2262 -0.0154462 0)
(31.1884 -0.0218063 0)
(31.1593 -0.0285093 0)
(31.1365 -0.0356211 0)
(31.1223 -0.0435668 0)
(31.1152 -0.0521856 0)
(31.1171 -0.0624617 0)
(31.1276 -0.0738311 0)
(31.1483 -0.0885111 0)
(31.18 -0.105989 0)
(31.2243 -0.129645 0)
(31.2812 -0.166102 0)
(31.3514 -0.211043 0)
(31.4201 -0.306761 0)
(32.7644 0.165197 0)
(32.9165 0.184668 0)
(33.0143 0.13189 0)
(33.0156 0.0897282 0)
(32.9878 0.0647486 0)
(32.965 0.0634175 0)
(32.9565 0.0665165 0)
(32.954 0.067919 0)
(32.9518 0.0685627 0)
(32.9498 0.0684784 0)
(32.9487 0.0678231 0)
(32.9482 0.0667561 0)
(32.9484 0.0654395 0)
(32.9493 0.0639324 0)
(32.9508 0.0623482 0)
(32.9532 0.0607053 0)
(32.9563 0.0589835 0)
(32.9606 0.0571799 0)
(32.9655 0.0553569 0)
(32.9717 0.0534504 0)
(32.978 0.0515233 0)
(32.9857 0.049405 0)
(32.9923 0.0471926 0)
(32.9999 0.0448655 0)
(33.0048 0.0425166 0)
(33.0097 0.0400261 0)
(33.0105 0.0374127 0)
(33.0098 0.0346228 0)
(33.0034 0.0314364 0)
(32.9945 0.0278563 0)
(32.9795 0.0238852 0)
(32.962 0.0196052 0)
(32.9389 0.0149057 0)
(32.9137 0.00988162 0)
(32.8847 0.00439687 0)
(32.8546 -0.0014525 0)
(32.8235 -0.00764128 0)
(32.7952 -0.0142414 0)
(32.7699 -0.0215582 0)
(32.7492 -0.0295768 0)
(32.7333 -0.0386933 0)
(32.7238 -0.0487374 0)
(32.7206 -0.06064 0)
(32.7259 -0.0740305 0)
(32.7391 -0.090792 0)
(32.7633 -0.111224 0)
(32.7978 -0.137468 0)
(32.8445 -0.177365 0)
(32.9 -0.224911 0)
(32.956 -0.314304 0)
(33.47 0.152754 0)
(33.6147 0.180876 0)
(33.7145 0.130194 0)
(33.7212 0.0899212 0)
(33.6981 0.0661694 0)
(33.6793 0.0641906 0)
(33.6735 0.0669225 0)
(33.6736 0.0681386 0)
(33.6739 0.0686328 0)
(33.6745 0.0684783 0)
(33.6758 0.0677668 0)
(33.6779 0.0666355 0)
(33.6804 0.0652548 0)
(33.6836 0.0636799 0)
(33.6874 0.0620043 0)
(33.6919 0.0602561 0)
(33.6972 0.0584289 0)
(33.7035 0.0565304 0)
(33.7105 0.0545592 0)
(33.7186 0.0525136 0)
(33.7277 0.0503613 0)
(33.7379 0.0481078 0)
(33.749 0.0457614 0)
(33.7614 0.0433446 0)
(33.7747 0.0408109 0)
(33.7894 0.0380875 0)
(33.8047 0.0352456 0)
(33.8218 0.032139 0)
(33.8388 0.0288107 0)
(33.8578 0.0252554 0)
(33.8762 0.0215412 0)
(33.8966 0.0175401 0)
(33.9159 0.0132822 0)
(33.9373 0.00866155 0)
(33.9573 0.00365197 0)
(33.9793 -0.00178965 0)
(34 -0.00784492 0)
(34.0226 -0.0145792 0)
(34.0443 -0.0221686 0)
(34.0683 -0.0305631 0)
(34.0924 -0.0401742 0)
(34.1194 -0.0509119 0)
(34.1478 -0.0636326 0)
(34.1804 -0.0782712 0)
(34.2164 -0.0963061 0)
(34.2579 -0.118819 0)
(34.3055 -0.146934 0)
(34.3581 -0.188782 0)
(34.4154 -0.238062 0)
(34.466 -0.320204 0)
(34.1817 0.139473 0)
(34.317 0.175858 0)
(34.4172 0.128041 0)
(34.4287 0.0897698 0)
(34.4099 0.067403 0)
(34.3946 0.0648166 0)
(34.3912 0.067133 0)
(34.3932 0.0681439 0)
(34.3957 0.0684735 0)
(34.3983 0.0682321 0)
(34.4017 0.0674526 0)
(34.4057 0.0662545 0)
(34.4102 0.0647994 0)
(34.4152 0.0631421 0)
(34.4207 0.06137 0)
(34.427 0.0595135 0)
(34.434 0.0575729 0)
(34.4417 0.0555347 0)
(34.4503 0.0534148 0)
(34.4598 0.0511983 0)
(34.4702 0.0488811 0)
(34.4816 0.0464617 0)
(34.494 0.0439168 0)
(34.5075 0.0412636 0)
(34.5222 0.0384394 0)
(34.538 0.0354624 0)
(34.5551 0.0323081 0)
(34.5735 0.0289588 0)
(34.5933 0.0253659 0)
(34.6145 0.0215694 0)
(34.6371 0.0174752 0)
(34.6614 0.0130683 0)
(34.6872 0.00829611 0)
(34.7147 0.00311368 0)
(34.7439 -0.00250269 0)
(34.7752 -0.00864039 0)
(34.8082 -0.0153965 0)
(34.8436 -0.0228189 0)
(34.8809 -0.0310279 0)
(34.921 -0.040104 0)
(34.9635 -0.0504069 0)
(35.009 -0.0620235 0)
(35.0579 -0.0756422 0)
(35.1102 -0.0915631 0)
(35.167 -0.110787 0)
(35.2274 -0.135124 0)
(35.2935 -0.164776 0)
(35.361 -0.207678 0)
(35.4304 -0.257617 0)
(35.4898 -0.332588 0)
(34.9007 0.125605 0)
(35.0252 0.169485 0)
(35.124 0.125399 0)
(35.1398 0.089243 0)
(35.1251 0.068401 0)
(35.1129 0.0652745 0)
(35.1116 0.0671295 0)
(35.1153 0.0679182 0)
(35.1194 0.0680675 0)
(35.1237 0.0677217 0)
(35.1287 0.0668649 0)
(35.1343 0.065591 0)
(35.1403 0.0640502 0)
(35.1468 0.0623026 0)
(35.1538 0.0604254 0)
(35.1614 0.0584506 0)
(35.1697 0.0563741 0)
(35.1787 0.0541883 0)
(35.1884 0.0519052 0)
(35.199 0.0495144 0)
(35.2105 0.0470105 0)
(35.2228 0.0443783 0)
(35.2362 0.0416018 0)
(35.2505 0.0386866 0)
(35.2659 0.0356073 0)
(35.2824 0.032347 0)
(35.3001 0.0288939 0)
(35.3191 0.025213 0)
(35.3393 0.0212574 0)
(35.3609 0.017028 0)
(35.384 0.0124692 0)
(35.4085 0.00757488 0)
(35.4347 0.00228815 0)
(35.4625 -0.00341338 0)
(35.4921 -0.00959771 0)
(35.5236 -0.0163236 0)
(35.5571 -0.0237078 0)
(35.5927 -0.0318059 0)
(35.6306 -0.0407981 0)
(35.671 -0.0507975 0)
(35.7141 -0.0621299 0)
(35.7601 -0.0749885 0)
(35.8095 -0.0898987 0)
(35.8619 -0.107443 0)
(35.9187 -0.12823 0)
(35.9783 -0.154466 0)
(36.0425 -0.185783 0)
(36.107 -0.229197 0)
(36.1712 -0.279113 0)
(36.2258 -0.34747 0)
(35.628 0.111441 0)
(35.7405 0.161662 0)
(35.8367 0.122216 0)
(35.8561 0.0883106 0)
(35.8452 0.0691046 0)
(35.836 0.0655335 0)
(35.8364 0.0668896 0)
(35.8415 0.0674385 0)
(35.847 0.0673936 0)
(35.8526 0.0669258 0)
(35.8589 0.0659796 0)
(35.8658 0.0646192 0)
(35.8731 0.0629834 0)
(35.8808 0.0611351 0)
(35.8889 0.0591421 0)
(35.8976 0.0570336 0)
(35.9069 0.0548089 0)
(35.9169 0.0524616 0)
(35.9276 0.0499995 0)
(35.939 0.0474145 0)
(35.9513 0.0446949 0)
(35.9644 0.04183 0)
(35.9784 0.0388017 0)
(35.9933 0.0356171 0)
(36.0093 0.0322453 0)
(36.0263 0.0286649 0)
(36.0444 0.0248585 0)
(36.0637 0.0207951 0)
(36.0842 0.0164277 0)
(36.1061 0.0117546 0)
(36.1292 0.00673487 0)
(36.1539 0.00134054 0)
(36.18 -0.00448084 0)
(36.2077 -0.0107763 0)
(36.2371 -0.0176134 0)
(36.2682 -0.0250625 0)
(36.3013 -0.0332366 0)
(36.3364 -0.0422251 0)
(36.3737 -0.052192 0)
(36.4132 -0.0632799 0)
(36.4554 -0.0757625 0)
(36.5001 -0.0899325 0)
(36.5478 -0.106183 0)
(36.5984 -0.125302 0)
(36.6525 -0.147621 0)
(36.709 -0.175447 0)
(36.7686 -0.208156 0)
(36.8279 -0.251446 0)
(36.8858 -0.300657 0)
(36.935 -0.363149 0)
(36.3647 0.0973112 0)
(36.4645 0.152349 0)
(36.5565 0.11842 0)
(36.5791 0.0869435 0)
(36.5718 0.0694459 0)
(36.5654 0.0655518 0)
(36.5674 0.0663853 0)
(36.5735 0.0666762 0)
(36.5801 0.0664259 0)
(36.5869 0.065818 0)
(36.5943 0.0647682 0)
(36.6022 0.0633101 0)
(36.6105 0.0615684 0)
(36.6191 0.0596074 0)
(36.6282 0.0574853 0)
(36.6378 0.0552296 0)
(36.6479 0.0528419 0)
(36.6586 0.0503155 0)
(36.67 0.0476556 0)
(36.6821 0.0448536 0)
(36.695 0.0418977 0)
(36.7086 0.0387768 0)
(36.7231 0.0354733 0)
(36.7385 0.0319852 0)
(36.7548 0.0282839 0)
(36.7722 0.0243464 0)
(36.7906 0.0201523 0)
(36.8101 0.0156723 0)
(36.8307 0.0108613 0)
(36.8526 0.00570866 0)
(36.8758 0.000169615 0)
(36.9003 -0.00579212 0)
(36.9263 -0.0122312 0)
(36.9537 -0.0191994 0)
(36.9828 -0.0267654 0)
(37.0135 -0.0350054 0)
(37.0461 -0.0440311 0)
(37.0805 -0.0539497 0)
(37.1169 -0.064913 0)
(37.1555 -0.0771039 0)
(37.1964 -0.0907623 0)
(37.2396 -0.106263 0)
(37.2856 -0.123907 0)
(37.3339 -0.144578 0)
(37.3852 -0.168457 0)
(37.4383 -0.197682 0)
(37.4934 -0.231616 0)
(37.5476 -0.274493 0)
(37.5996 -0.322684 0)
(37.6441 -0.380293 0)
(37.1117 0.0835609 0)
(37.1984 0.141586 0)
(37.2849 0.113923 0)
(37.3101 0.085111 0)
(37.3062 0.0693511 0)
(37.3025 0.0652751 0)
(37.3058 0.0655825 0)
(37.3129 0.065598 0)
(37.3204 0.0651335 0)
(37.3281 0.0643672 0)
(37.3363 0.0631981 0)
(37.3451 0.0616295 0)
(37.3542 0.0597694 0)
(37.3636 0.057682 0)
(37.3734 0.0554166 0)
(37.3836 0.0529986 0)
(37.3944 0.0504305 0)
(37.4058 0.0477062 0)
(37.4177 0.0448274 0)
(37.4303 0.0417863 0)
(37.4436 0.0385698 0)
(37.4576 0.0351659 0)
(37.4725 0.0315555 0)
(37.4882 0.0277308 0)
(37.5047 0.0236658 0)
(37.5222 0.0193356 0)
(37.5408 0.0147157 0)
(37.5603 0.00977621 0)
(37.581 0.00447318 0)
(37.6028 -0.00121538 0)
(37.6259 -0.00733283 0)
(37.6502 -0.0139209 0)
(37.6759 -0.0210343 0)
(37.703 -0.028731 0)
(37.7315 -0.0370835 0)
(37.7617 -0.0461779 0)
(37.7936 -0.0561245 0)
(37.8272 -0.0670491 0)
(37.8626 -0.0790987 0)
(37.9 -0.0924888 0)
(37.9396 -0.10743 0)
(37.9812 -0.12434 0)
(38.0251 -0.143458 0)
(38.071 -0.165661 0)
(38.1192 -0.191066 0)
(38.1687 -0.22147 0)
(38.2192 -0.25634 0)
(38.2685 -0.298553 0)
(38.3152 -0.345389 0)
(38.3555 -0.398859 0)
(37.8697 0.0705279 0)
(37.9434 0.129516 0)
(38.0232 0.108633 0)
(38.0505 0.0827777 0)
(38.0499 0.0687455 0)
(38.0486 0.0646366 0)
(38.0532 0.0644399 0)
(38.061 0.0641655 0)
(38.0693 0.0634801 0)
(38.0777 0.0625381 0)
(38.0866 0.0612323 0)
(38.096 0.0595386 0)
(38.1057 0.0575462 0)
(38.1157 0.0553169 0)
(38.1261 0.0528926 0)
(38.1369 0.050295 0)
(38.1482 0.0475276 0)
(38.16 0.0445843 0)
(38.1723 0.0414642 0)
(38.1853 0.0381589 0)
(38.1989 0.0346545 0)
(38.2132 0.030937 0)
(38.2283 0.0269869 0)
(38.2441 0.0227914 0)
(38.2608 0.0183254 0)
(38.2784 0.0135615 0)
(38.2969 0.00847151 0)
(38.3164 0.00302445 0)
(38.337 -0.00282291 0)
(38.3586 -0.00910058 0)