/*--------------------------------*- C++ -*----------------------------------*\
| =========                 |                                                 |
| \\      /  F ield         | OpenFOAM: The Open Source CFD Toolbox           |
|  \\    /   O peration     | Version:  2412                                  |
|   \\  /    A nd           | Website:  www.openfoam.com                      |
|    \\/     M anipulation  |                                                 |
\*---------------------------------------------------------------------------*/
FoamFile
{
    version     2.0;
    format      ascii;
    arch        "LSB;label=32;scalar=64";
    class       volVectorField;
    location    "1500";
    object      wallShearStress;
}
// * * * * * * * * * * * * * * * * * * * * * * * * * * * * * * * * * * * * * //

dimensions      [0 2 -2 0 0 0 0];

internalField   uniform (0 0 0);

boundaryField
{
    inlet
    {
        type            calculated;
        value           uniform (0 0 0);
    }
    outlet
    {
        type            calculated;
        value           uniform (0 0 0);
    }
    lowerWallStartup
    {
        type            calculated;
        value           nonuniform List<vector> 
50
(
(-3.20996 0.00892058 0)
(-1.84798 -0.00324898 0)
(-1.42064 -0.000988617 0)
(-1.25241 -1.25588e-05 0)
(-1.37863 0.000497582 0)
(-1.52015 0.000393695 0)
(-1.60292 0.000221124 0)
(-1.6536 0.000137524 0)
(-1.68718 9.50011e-05 0)
(-1.71109 7.0569e-05 0)
(-1.72891 5.30755e-05 0)
(-1.7422 4.24671e-05 0)
(-1.75323 3.66938e-05 0)
(-1.7626 3.33468e-05 0)
(-1.77136 3.14199e-05 0)
(-1.77919 3.04217e-05 0)
(-1.78698 2.96457e-05 0)
(-1.79411 2.97148e-05 0)
(-1.80152 2.99182e-05 0)
(-1.80843 3.00278e-05 0)
(-1.81561 3.04027e-05 0)
(-1.82238 3.14459e-05 0)
(-1.82964 3.30175e-05 0)
(-1.83666 3.41204e-05 0)
(-1.84408 3.54733e-05 0)
(-1.85131 3.70237e-05 0)
(-1.85898 3.8369e-05 0)
(-1.8664 4.02201e-05 0)
(-1.87434 4.26869e-05 0)
(-1.88222 4.50964e-05 0)
(-1.89064 4.80547e-05 0)
(-1.89911 5.15286e-05 0)
(-1.90826 5.51919e-05 0)
(-1.91748 5.93778e-05 0)
(-1.92747 6.38793e-05 0)
(-1.9376 6.95871e-05 0)
(-1.94871 7.6079e-05 0)
(-1.96015 8.3865e-05 0)
(-1.97283 9.23027e-05 0)
(-1.98596 0.000103005 0)
(-2.0007 0.000115029 0)
(-2.01623 0.000130525 0)
(-2.03371 0.000149879 0)
(-2.05329 0.000175779 0)
(-2.07452 0.000215638 0)
(-2.10369 0.000267054 0)
(-2.12804 0.000399154 0)
(-2.19414 0.000561378 0)
(-2.214 0.00057546 0)
(-2.19753 0.0794686 0)
)
;
    }
    upperWallStartup
    {
        type            calculated;
        value           nonuniform List<vector> 
50
(
(-14.141 0.208794 0)
(-5.21935 0.0151736 0)
(-4.8532 -0.00123609 0)
(-4.80757 -0.000586961 0)
(-4.7692 -0.000143126 0)
(-4.70341 7.49879e-05 0)
(-4.62643 0.000144144 0)
(-4.54935 0.000157297 0)
(-4.47989 0.000152342 0)
(-4.41703 0.000144893 0)
(-4.36081 0.000136101 0)
(-4.30994 0.000128745 0)
(-4.26342 0.000121917 0)
(-4.221 0.000114607 0)
(-4.18227 0.000108697 0)
(-4.1464 0.000103215 0)
(-4.11347 0.000103703 0)
(-4.08155 0.000107202 0)
(-4.05136 0.000104744 0)
(-4.0232 0.00010131 0)
(-3.99665 9.91672e-05 0)
(-3.97132 9.6979e-05 0)
(-3.9473 9.46849e-05 0)
(-3.92437 9.31597e-05 0)
(-3.90241 9.15547e-05 0)
(-3.88141 9.00215e-05 0)
(-3.86124 8.85532e-05 0)
(-3.84194 8.70125e-05 0)
(-3.82342 8.57395e-05 0)
(-3.80561 8.51512e-05 0)
(-3.78835 8.50669e-05 0)
(-3.77155 8.4803e-05 0)
(-3.75527 8.44234e-05 0)
(-3.73944 8.40135e-05 0)
(-3.72411 8.34744e-05 0)
(-3.70924 8.33546e-05 0)
(-3.69476 8.32182e-05 0)
(-3.68068 8.30186e-05 0)
(-3.66696 8.3314e-05 0)
(-3.65356 8.35239e-05 0)
(-3.64047 8.36631e-05 0)
(-3.62769 8.38441e-05 0)
(-3.61521 8.4014e-05 0)
(-3.60302 8.42463e-05 0)
(-3.5911 8.44961e-05 0)
(-3.57945 8.47291e-05 0)
(-3.56806 8.49466e-05 0)
(-3.55692 8.53984e-05 0)
(-3.54602 8.58241e-05 0)
(-3.53533 8.70657e-05 0)
)
;
    }
    upperWall
    {
        type            calculated;
        value           nonuniform List<vector> 
100
(
(-3.5277 9.00928e-05 0)
(-3.52296 9.03606e-05 0)
(-3.51813 9.03412e-05 0)
(-3.51319 9.04618e-05 0)
(-3.50814 9.05755e-05 0)
(-3.50297 9.06271e-05 0)
(-3.49769 9.06605e-05 0)
(-3.49229 9.06996e-05 0)
(-3.48677 9.07344e-05 0)
(-3.48112 9.07657e-05 0)
(-3.47534 9.07877e-05 0)
(-3.46944 9.08213e-05 0)
(-3.4634 9.08402e-05 0)
(-3.45723 9.08779e-05 0)
(-3.45092 9.0899e-05 0)
(-3.44446 9.09382e-05 0)
(-3.43786 9.0966e-05 0)
(-3.43111 9.10092e-05 0)
(-3.42421 9.10481e-05 0)
(-3.41715 9.11036e-05 0)
(-3.40994 9.11035e-05 0)
(-3.40256 9.10755e-05 0)
(-3.39502 9.11183e-05 0)
(-3.38731 9.11537e-05 0)
(-3.37942 9.12516e-05 0)
(-3.37135 9.13302e-05 0)
(-3.3631 9.1457e-05 0)
(-3.35465 9.14348e-05 0)
(-3.34602 9.1158e-05 0)
(-3.33722 9.1167e-05 0)
(-3.32821 9.12453e-05 0)
(-3.31901 9.12416e-05 0)
(-3.3096 9.12067e-05 0)
(-3.29999 9.11441e-05 0)
(-3.29017 9.10498e-05 0)
(-3.28015 9.09223e-05 0)
(-3.26991 9.07714e-05 0)
(-3.25947 9.05842e-05 0)
(-3.24881 9.03826e-05 0)
(-3.23795 9.01312e-05 0)
(-3.22687 8.98831e-05 0)
(-3.21558 8.95582e-05 0)
(-3.20408 8.91439e-05 0)
(-3.19238 8.8745e-05 0)
(-3.18047 8.83649e-05 0)
(-3.16836 8.79376e-05 0)
(-3.15603 8.7552e-05 0)
(-3.14349 8.69422e-05 0)
(-3.13077 8.61023e-05 0)
(-3.11787 8.54745e-05 0)
(-3.1048 8.47906e-05 0)
(-3.09154 8.39902e-05 0)
(-3.07813 8.31052e-05 0)
(-3.06457 8.21592e-05 0)
(-3.05087 8.1113e-05 0)
(-3.03703 8.00288e-05 0)
(-3.02312 7.88389e-05 0)
(-3.00905 7.76877e-05 0)
(-2.99501 7.60492e-05 0)
(-2.98079 7.43509e-05 0)
(-2.94886 6.99296e-05 0)
(-2.90166 6.49633e-05 0)
(-2.85818 5.93544e-05 0)
(-2.81869 5.38157e-05 0)
(-2.78301 4.8734e-05 0)
(-2.75081 4.36389e-05 0)
(-2.72232 3.86057e-05 0)
(-2.6972 3.42788e-05 0)
(-2.67495 3.04294e-05 0)
(-2.65537 2.69046e-05 0)
(-2.63814 2.36393e-05 0)
(-2.62315 2.08067e-05 0)
(-2.60992 1.84339e-05 0)
(-2.59833 1.6417e-05 0)
(-2.58795 1.46663e-05 0)
(-2.57881 1.31402e-05 0)
(-2.57055 1.1816e-05 0)
(-2.56324 1.07151e-05 0)
(-2.55649 9.79098e-06 0)
(-2.55046 9.0776e-06 0)
(-2.54469 8.45089e-06 0)
(-2.53951 7.90922e-06 0)
(-2.53446 7.43296e-06 0)
(-2.52991 7.09145e-06 0)
(-2.52532 6.77479e-06 0)
(-2.52119 6.53087e-06 0)
(-2.51692 6.29801e-06 0)
(-2.51309 6.14552e-06 0)
(-2.50903 6.00558e-06 0)
(-2.50535 5.87586e-06 0)
(-2.5015 5.80089e-06 0)
(-2.49784 5.69325e-06 0)
(-2.49425 5.72248e-06 0)
(-2.49034 5.65026e-06 0)
(-2.48722 5.65237e-06 0)
(-2.48265 5.73243e-06 0)
(-2.4805 5.39601e-06 0)
(-2.4746 6.59883e-06 0)
(-2.47388 3.56118e-06 0)
(-2.4669 8.44052e-06 0)
)
;
    }
    verticalWall
    {
        type            calculated;
        value           nonuniform List<vector> 
60
(
(0.00629558 0.00737424 0)
(-0.000677748 0.00189293 0)
(0.000873364 0.00133339 0)
(0.000777206 0.00100197 0)
(0.00069213 0.000796267 0)
(0.000720534 0.000630084 0)
(0.000659396 0.000502402 0)
(0.000481812 0.000412281 0)
(0.000191062 0.000359957 0)
(-0.000219304 0.000351012 0)
(-0.000761926 0.000401057 0)
(-0.00144849 0.0005402 0)
(-0.00228132 0.00081351 0)
(-0.00324824 0.00127569 0)
(-0.00431693 0.00197753 0)
(-0.005437 0.00295105 0)
(-0.00654708 0.00419825 0)
(-0.00758701 0.00569094 0)
(-0.00850882 0.00738267 0)
(-0.00928241 0.00922489 0)
(-0.00989451 0.0111782 0)
(-0.0103431 0.0132142 0)
(-0.01063 0.0153128 0)
(-0.0107567 0.0174556 0)
(-0.0107304 0.0196225 0)
(-0.0105639 0.0217937 0)
(-0.010267 0.0239502 0)
(-0.00984852 0.0260712 0)
(-0.00931943 0.0281346 0)
(-0.0086917 0.0301188 0)
(-0.00797744 0.032004 0)
(-0.00721162 0.0338704 0)
(-0.00637583 0.0355846 0)
(-0.00548168 0.0371221 0)
(-0.0045427 0.0384589 0)
(-0.00357163 0.0395713 0)
(-0.00258245 0.0404362 0)
(-0.00158939 0.0410328 0)
(-0.000603602 0.0413425 0)
(0.000361059 0.0413459 0)
(0.00128918 0.0410385 0)
(0.00219505 0.0404254 0)
(0.00309049 0.0394761 0)
(0.00397635 0.0381762 0)
(0.00485831 0.0365035 0)
(0.00573741 0.0344381 0)
(0.00661457 0.0319583 0)
(0.00750284 0.029104 0)
(0.00842609 0.0259091 0)
(0.00937356 0.0222721 0)
(0.010341 0.0181766 0)
(0.0112875 0.0136136 0)
(0.0121184 0.00866459 0)
(0.0126882 0.00332602 0)
(0.0130089 -0.00230228 0)
(0.011786 -0.00882745 0)
(0.0118781 -0.0127525 0)
(0.00365945 -0.0264758 0)
(0.000857607 -0.0110482 0)
(-0.0219907 -0.237617 0)
)
;
    }
    lowerWall
    {
        type            calculated;
        value           nonuniform List<vector> 
100
(
(-0.000169818 -0.00685939 0)
(-0.00565821 0.000517941 0)
(-0.0229584 0.000653507 0)
(-0.036123 0.000357089 0)
(-0.0412312 1.43374e-05 0)
(-0.0388182 -0.000232629 0)
(-0.0315312 -0.000347997 0)
(-0.0220956 -0.000344467 0)
(-0.0137962 -0.000239828 0)
(-0.0085271 -0.000117197 0)
(-0.00673129 0.000118669 0)
(-0.0152927 0.000446532 0)
(-0.0302463 0.000458402 0)
(-0.0407093 0.000302611 0)
(-0.0480212 0.000274175 0)
(-0.0556117 0.000262199 0)
(-0.0618505 0.000198904 0)
(-0.064759 8.46227e-05 0)
(-0.0592739 -0.000211906 0)
(-0.0352141 -0.000773741 0)
(0.0122231 -0.00135689 0)
(0.0751969 -0.00168234 0)
(0.142922 -0.00172923 0)
(0.209008 -0.00163853 0)
(0.271866 -0.00151632 0)
(0.331701 -0.00140839 0)
(0.38923 -0.00132037 0)
(0.444925 -0.00124798 0)
(0.499033 -0.00118492 0)
(0.551638 -0.00112747 0)
(0.602661 -0.00107239 0)
(0.652008 -0.00102001 0)
(0.699533 -0.000969277 0)
(0.745076 -0.000920165 0)
(0.788444 -0.000872924 0)
(0.829407 -0.000825986 0)
(0.867666 -0.000779406 0)
(0.902904 -0.000732141 0)
(0.934758 -0.000684672 0)
(0.962845 -0.000635399 0)
(0.986759 -0.000585593 0)
(1.00618 -0.000536149 0)
(1.02075 -0.000486709 0)
(1.03013 -0.000436309 0)
(1.03399 -0.000386072 0)
(1.03212 -0.000338575 0)
(1.02438 -0.000293206 0)
(1.01059 -0.000249759 0)
(0.990655 -0.000208249 0)
(0.96456 -0.000170156 0)
(0.932431 -0.000136553 0)
(0.894405 -0.000106521 0)
(0.850643 -8.02863e-05 0)
(0.801431 -5.8805e-05 0)
(0.746936 -3.84329e-05 0)
(0.68778 -2.86467e-05 0)
(0.623793 -8.76499e-06 0)
(0.556389 -1.68425e-05 0)
(0.484253 1.39464e-05 0)
(0.410625 -2.55668e-05 0)
(0.233891 -7.14726e-06 0)
(-0.0396052 -6.58524e-06 0)
(-0.288767 2.4136e-06 0)
(-0.506249 9.15658e-07 0)
(-0.687149 2.80259e-06 0)
(-0.834429 2.38377e-06 0)
(-0.951869 4.6425e-06 0)
(-1.04511 6.30285e-06 0)
(-1.11897 8.88836e-06 0)
(-1.17782 1.05419e-05 0)
(-1.22491 1.24202e-05 0)
(-1.2632 1.38006e-05 0)
(-1.29457 1.49194e-05 0)
(-1.32079 1.57362e-05 0)
(-1.34289 1.62135e-05 0)
(-1.3619 1.67148e-05 0)
(-1.37844 1.69314e-05 0)
(-1.39307 1.71461e-05 0)
(-1.40619 1.70494e-05 0)
(-1.418 1.7133e-05 0)
(-1.42895 1.69599e-05 0)
(-1.43889 1.69436e-05 0)
(-1.4484 1.66394e-05 0)
(-1.45701 1.60787e-05 0)
(-1.46531 1.46594e-05 0)
(-1.47235 1.44914e-05 0)
(-1.4799 1.44548e-05 0)
(-1.48629 1.45425e-05 0)
(-1.49351 1.46097e-05 0)
(-1.49947 1.43663e-05 0)
(-1.50627 1.45931e-05 0)
(-1.51208 1.42217e-05 0)
(-1.51821 1.44686e-05 0)
(-1.52449 1.45154e-05 0)
(-1.52927 1.35249e-05 0)
(-1.53713 1.63914e-05 0)
(-1.53918 1.03715e-05 0)
(-1.55088 2.40022e-05 0)
(-1.54804 -3.03641e-06 0)
(-1.56427 5.31613e-05 0)
)
;
    }
    front
    {
        type            empty;
    }
    back
    {
        type            empty;
    }
}


// ************************************************************************* //
