0 	-46.0557 	0 	0 	0
0.000571357 	-46.4764 	-0.0936124 	-0.115151 	0
0.00114271 	-47.1443 	0.599013 	-0.251398 	0
0.00171407 	-47.7592 	1.27017 	-0.389053 	0
0.00228543 	-48.2763 	1.97016 	-0.52674 	0
0.00285678 	-48.6977 	2.72075 	-0.664252 	0
0.00342814 	-49.0344 	3.53628 	-0.800933 	0
0.0039995 	-49.3054 	4.42675 	-0.93684 	0
0.00457085 	-49.5257 	5.40084 	-1.07187 	0
0.00514221 	-49.7106 	6.46311 	-1.20511 	0
0.00571357 	-49.8743 	7.61954 	-1.33694 	0
0.00628492 	-49.9753 	8.87657 	-1.46669 	0
0.00685628 	-49.9546 	10.276 	-1.59363 	0
0.00742764 	-49.9545 	11.8473 	-1.71749 	0
0.00799899 	-50.0351 	13.5556 	-1.83525 	0
0.00857035 	-50.1502 	15.37 	-1.9501 	0
0.00914171 	-50.3086 	17.2697 	-2.05854 	0
0.00971307 	-50.4994 	19.2312 	-2.1638 	0
0.0102844 	-50.7598 	21.1895 	-2.26086 	0
0.0108558 	-51.0701 	23.0988 	-2.35042 	0
0.0114271 	-51.3868 	24.9655 	-2.43317 	0
0.0119985 	-51.7075 	26.8551 	-2.50838 	0
0.0125698 	-51.9814 	28.4911 	-2.56562 	0
0.0131412 	-52.4296 	31.0048 	-2.63636 	0
0.0137126 	-52.9022 	33.3584 	-2.68731 	0
0.0142839 	-53.4145 	34.7895 	-2.70907 	0
0.0148553 	-53.9114 	35.345 	-2.7099 	0
0.0154266 	-54.4018 	35.8227 	-2.70613 	0
0.015998 	-54.8919 	36.2309 	-2.6983 	0
0.0165693 	-55.3643 	36.6449 	-2.69101 	0
0.0171407 	-55.8351 	37.0359 	-2.68234 	0
0.0177121 	-56.305 	37.403 	-2.6725 	0
0.0182834 	-56.7382 	37.756 	-2.66114 	0
0.0188548 	-57.1731 	38.0887 	-2.649 	0
0.0194261 	-57.6344 	38.4047 	-2.63714 	0
0.0199975 	-58.0248 	38.7166 	-2.62329 	0
0.0205688 	-58.4705 	39.0056 	-2.6104 	0
0.0211402 	-58.8559 	39.2939 	-2.59596 	0
0.0217116 	-59.2849 	39.5618 	-2.58234 	0
0.0222829 	-59.6358 	39.8317 	-2.56681 	0
0.0228543 	-60.0802 	40.0799 	-2.5534 	0
0.0234256 	-60.4113 	40.329 	-2.53736 	0
0.023997 	-60.7933 	40.5671 	-2.52243 	0
0.0245683 	-61.171 	40.7913 	-2.50742 	0
0.0251397 	-61.4807 	41.0173 	-2.49097 	0
0.0257111 	-61.8526 	41.223 	-2.47543 	0
0.0262824 	-62.2086 	41.4133 	-2.45935 	0
0.0268538 	-62.4944 	41.6066 	-2.44194 	0
0.0274251 	-62.804 	41.7866 	-2.4246 	0
0.0279965 	-63.1969 	41.9165 	-2.40743 	0
0.0285678 	-63.457 	42.0552 	-2.38805 	0
0.0291392 	-63.717 	42.1938 	-2.36867 	0
0.0297106 	-64.0196 	42.2969 	-2.34872 	0
0.0302819 	-64.3735 	42.3495 	-2.32781 	0
0.0308533 	-64.6041 	42.4095 	-2.30488 	0
0.0314246 	-64.8348 	42.4696 	-2.28195 	0
0.031996 	-65.0705 	42.526 	-2.25903 	0
0.0325673 	-65.3937 	42.5209 	-2.2363 	0
0.0331387 	-65.6517 	42.5163 	-2.21235 	0
0.0337101 	-65.8505 	42.5122 	-2.1873 	0
0.0342814 	-66.0494 	42.5081 	-2.16224 	0
0.0348528 	-66.2533 	42.5041 	-2.13742 	0
0.0354241 	-66.5345 	42.502 	-2.11613 	0
0.0359955 	-66.7808 	42.4988 	-2.09417 	0
0.0365668 	-66.9477 	42.4932 	-2.07066 	0
0.0371382 	-67.1147 	42.4877 	-2.04716 	0
0.0377095 	-67.2817 	42.4821 	-2.02366 	0
0.0382809 	-67.4736 	42.4814 	-2.00143 	0
0.0388523 	-67.7147 	42.4905 	-1.98173 	0
0.0394236 	-67.922 	42.4988 	-1.96144 	0
0.039995 	-68.0589 	42.5051 	-1.93992 	0
0.0405663 	-68.1959 	42.5115 	-1.91839 	0
0.0411377 	-68.3328 	42.5179 	-1.89687 	0
0.041709 	-68.4697 	42.5243 	-1.87534 	0
0.0422804 	-68.6576 	42.5293 	-1.85595 	0
0.0428518 	-68.8606 	42.5339 	-1.8372 	0
0.0434231 	-69.0201 	42.5376 	-1.81776 	0
0.0439945 	-69.1299 	42.5402 	-1.79754 	0
0.0445658 	-69.2397 	42.5428 	-1.77731 	0
0.0451372 	-69.3495 	42.5454 	-1.75709 	0
0.0457085 	-69.4593 	42.548 	-1.73686 	0
0.0462799 	-69.5831 	42.5511 	-1.71729 	0
0.0468513 	-69.7497 	42.5556 	-1.69975 	0
0.0474226 	-69.9164 	42.5601 	-1.68221 	0
0.047994 	-70.0338 	42.5634 	-1.66395 	0
0.0485653 	-70.1188 	42.566 	-1.64522 	0
0.0491367 	-70.2038 	42.5687 	-1.62649 	0
0.049708 	-70.2888 	42.5713 	-1.60776 	0
0.0502794 	-70.3738 	42.5739 	-1.58903 	0
0.0508508 	-70.4588 	42.5765 	-1.5703 	0
0.0514221 	-70.5739 	42.5799 	-1.55304 	0
0.0519935 	-70.7075 	42.5838 	-1.53668 	0
0.0525648 	-70.8411 	42.5877 	-1.52032 	0
0.0531362 	-70.9336 	42.5907 	-1.50342 	0
0.0537075 	-70.9973 	42.593 	-1.48614 	0
0.0542789 	-71.0609 	42.5952 	-1.46886 	0
0.0548503 	-71.1246 	42.5975 	-1.45158 	0
0.0554216 	-71.1883 	42.5998 	-1.4343 	0
0.055993 	-71.2519 	42.6021 	-1.41702 	0
0.0565643 	-71.3156 	42.6044 	-1.39974 	0
0.0571357 	-71.4068 	42.6074 	-1.38429 	0
0.057707 	-71.5084 	42.6108 	-1.36951 	0
0.0582784 	-71.61 	42.6141 	-1.35474 	0
0.0588497 	-71.6975 	42.6171 	-1.33979 	0
0.0594211 	-71.743 	42.6192 	-1.32431 	0
0.0599925 	-71.7885 	42.6212 	-1.30883 	0
0.0605638 	-71.8339 	42.6233 	-1.29334 	0
0.0611352 	-71.8794 	42.6253 	-1.27786 	0
0.0617065 	-71.9249 	42.6274 	-1.26238 	0
0.0622779 	-71.9704 	42.6294 	-1.24689 	0
0.0628492 	-72.0159 	42.6314 	-1.23141 	0
0.0634206 	-72.0743 	42.6339 	-1.21659 	0
0.063992 	-72.1529 	42.6369 	-1.20281 	0
0.0645633 	-72.2316 	42.64 	-1.18904 	0
0.0651347 	-72.3103 	42.643 	-1.17526 	0
0.065706 	-72.348 	42.6451 	-1.16099 	0
0.0662774 	-72.3817 	42.6472 	-1.14666 	0
0.0668487 	-72.4153 	42.6492 	-1.13234 	0
0.0674201 	-72.449 	42.6512 	-1.11802 	0
0.0679915 	-72.4827 	42.6532 	-1.1037 	0
0.0685628 	-72.5164 	42.6552 	-1.08938 	0
0.0691342 	-72.5501 	42.6572 	-1.07505 	0
0.0697055 	-72.5851 	42.6593 	-1.06078 	0
0.0702769 	-72.6486 	42.6623 	-1.04738 	0
0.0708482 	-72.7121 	42.6654 	-1.03398 	0
0.0714196 	-72.775 	42.6684 	-1.02058 	0
0.071991 	-72.8009 	42.6706 	-1.00677 	0
0.0725623 	-72.8268 	42.6727 	-0.992953 	0
0.0731337 	-72.8527 	42.6749 	-0.979139 	0
0.073705 	-72.8786 	42.677 	-0.965326 	0
0.0742764 	-72.9044 	42.6792 	-0.951512 	0
0.0748477 	-72.9303 	42.6814 	-0.937698 	0
0.0754191 	-72.9601 	42.6837 	-0.924042 	0
0.0759905 	-73.011 	42.6868 	-0.911242 	0
0.0765618 	-73.062 	42.6899 	-0.898441 	0
0.0771332 	-73.0969 	42.6927 	-0.885467 	0
0.0777045 	-73.1164 	42.6951 	-0.872328 	0
0.0782759 	-73.1359 	42.6974 	-0.859188 	0
0.0788472 	-73.1554 	42.6998 	-0.846049 	0
0.0794186 	-73.1749 	42.7022 	-0.832909 	0
0.0799899 	-73.1944 	42.7046 	-0.819769 	0
0.0805613 	-73.2257 	42.7075 	-0.807036 	0
0.0811327 	-73.2675 	42.7109 	-0.794667 	0
0.081704 	-73.3034 	42.7141 	-0.782233 	0
0.0822754 	-73.3186 	42.7169 	-0.769577 	0
0.0828467 	-73.3338 	42.7196 	-0.756921 	0
0.0834181 	-73.349 	42.7224 	-0.744265 	0
0.0839894 	-73.3643 	42.7251 	-0.731609 	0
0.0845608 	-73.3795 	42.7279 	-0.718955 	0
0.0851322 	-73.4144 	42.7317 	-0.706921 	0
0.0857035 	-73.4492 	42.7355 	-0.694887 	0
0.0862749 	-73.4616 	42.7387 	-0.682605 	0
0.0868462 	-73.4737 	42.742 	-0.670321 	0
0.0874176 	-73.4858 	42.7453 	-0.658037 	0
0.0879889 	-73.498 	42.7485 	-0.645753 	0
0.0885603 	-73.5177 	42.7523 	-0.633687 	0
0.0891317 	-73.5472 	42.7567 	-0.6219 	0
0.089703 	-73.5633 	42.7609 	-0.60996 	0
0.0902744 	-73.5732 	42.7648 	-0.597949 	0
0.0908457 	-73.5831 	42.7688 	-0.585939 	0
0.0914171 	-73.5931 	42.7728 	-0.573928 	0
0.0919884 	-73.6139 	42.7777 	-0.562218 	0
0.0925598 	-73.6359 	42.7829 	-0.550592 	0
0.0931312 	-73.6441 	42.7878 	-0.538797 	0
0.0937025 	-73.6524 	42.7927 	-0.527003 	0
0.0942739 	-73.6606 	42.7976 	-0.515209 	0
0.0948452 	-73.6785 	42.8037 	-0.50367 	0
0.0954166 	-73.6945 	42.81 	-0.492158 	0
0.0959879 	-73.7015 	42.8161 	-0.480527 	0
0.0965593 	-73.7084 	42.8222 	-0.468897 	0
0.0971307 	-73.7197 	42.829 	-0.457381 	0
0.097702 	-73.7359 	42.8369 	-0.44603 	0
0.0982734 	-73.7418 	42.8445 	-0.434534 	0
0.0988447 	-73.7478 	42.8521 	-0.423038 	0
0.0994161 	-73.7596 	42.8609 	-0.411698 	0
0.0999874 	-73.7698 	42.8705 	-0.400385 	0
0.100559 	-73.7749 	42.88 	-0.388993 	0
0.10113 	-73.7823 	42.8901 	-0.377665 	0
0.101702 	-73.793 	42.902 	-0.366469 	0
0.102273 	-73.7975 	42.9137 	-0.355166 	0
0.102844 	-73.8048 	42.9264 	-0.343949 	0
0.103416 	-73.8123 	42.9407 	-0.332788 	0
0.103987 	-73.8162 	42.955 	-0.321559 	0
0.104558 	-73.8249 	42.9718 	-0.310483 	0
0.10513 	-73.8283 	42.9889 	-0.299307 	0
0.105701 	-73.8355 	43.0081 	-0.28827 	0
0.106272 	-73.8385 	43.0282 	-0.277168 	0
0.106844 	-73.8444 	43.051 	-0.266165 	0
0.107415 	-73.8473 	43.0747 	-0.255095 	0
0.107986 	-73.8517 	43.1021 	-0.244181 	0
0.108558 	-73.8554 	43.1154 	-0.233315 	0
0.109129 	-73.857 	43.0283 	-0.220926 	0
0.109701 	-73.8554 	42.6458 	-0.203836 	0
0.110272 	-73.8556 	41.5278 	-0.174914 	0
0.110843 	-73.8614 	39.6909 	-0.137562 	0
0.111415 	-73.8687 	37.4962 	-0.101144 	0
0.111986 	-73.8816 	35.0799 	-0.0689491 	0
0.112557 	-73.9015 	32.2823 	-0.0412669 	0
0.113129 	-73.9275 	28.1175 	-0.0173894 	0
0.1137 	-73.9482 	1.19056e-10 	-4.17586e-15 	0
